 Entering Gaussian System, Link 0=g16
 Input=Cd2_step2.gjf
 Output=Cd2_step2.log
 Initial command:
 
  
 Copyright (c) 1988,1990,1992,1993,1995,1998,2003,2009,2016,
            Gaussian, Inc.  All Rights Reserved.
  
 This is part of the Gaussian(R) 16 program.  It is based on
 the Gaussian(R) 09 system (copyright 2009, Gaussian, Inc.),
 the Gaussian(R) 03 system (copyright 2003, Gaussian, Inc.),
 the Gaussian(R) 98 system (copyright 1998, Gaussian, Inc.),
 the Gaussian(R) 94 system (copyright 1995, Gaussian, Inc.),
 the Gaussian 92(TM) system (copyright 1992, Gaussian, Inc.),
 the Gaussian 90(TM) system (copyright 1990, Gaussian, Inc.),
 the Gaussian 88(TM) system (copyright 1988, Gaussian, Inc.),
 the Gaussian 86(TM) system (copyright 1986, Carnegie Mellon
 University), and the Gaussian 82(TM) system (copyright 1983,
 Carnegie Mellon University). Gaussian is a federally registered
 trademark of Gaussian, Inc.
  
 This software contains proprietary and confidential information,
 including trade secrets, belonging to Gaussian, Inc.
  
 This software is provided under written license and may be
 used, copied, transmitted, or stored only in accord with that
 written license.
  
 The following legend is applicable only to US Government
 contracts under FAR:
  
                    RESTRICTED RIGHTS LEGEND
  
 Use, reproduction and disclosure by the US Government is
 subject to restrictions as set forth in subparagraphs (a)
 and (c) of the Commercial Computer Software - Restricted
 Rights clause in FAR 52.227-19.
  
 Gaussian, Inc.
 340 Quinnipiac St., Bldg. 40, Wallingford CT 06492
  
  
 ---------------------------------------------------------------
 Warning -- This program may not be used in any manner that
 competes with the business of Gaussian, Inc. or will provide
 assistance to any competitor of Gaussian, Inc.  The licensee
 of this program is prohibited from giving any competitor of
 Gaussian, Inc. access to this program.  By using this program,
 the user acknowledges that Gaussian, Inc. is engaged in the
 business of creating and licensing software in the field of
 computational chemistry and represents and warrants to the
 licensee that it is not a competitor of Gaussian, Inc. and that
 it will not use this program in any manner prohibited above.
 ---------------------------------------------------------------
  

 Cite this work as:
 Gaussian 16, Revision A.03,
 M. J. Frisch, G. W. Trucks, H. B. Schlegel, G. E. Scuseria, 
 M. A. Robb, J. R. Cheeseman, G. Scalmani, V. Barone, 
 G. A. Petersson, H. Nakatsuji, X. Li, M. Caricato, A. V. Marenich, 
 J. Bloino, B. G. Janesko, R. Gomperts, B. Mennucci, H. P. Hratchian, 
 J. V. Ortiz, A. F. Izmaylov, J. L. Sonnenberg, D. Williams-Young, 
 F. Ding, F. Lipparini, F. Egidi, J. Goings, B. Peng, A. Petrone, 
 T. Henderson, D. Ranasinghe, V. G. Zakrzewski, J. Gao, N. Rega, 
 G. Zheng, W. Liang, M. Hada, M. Ehara, K. Toyota, R. Fukuda, 
 J. Hasegawa, M. Ishida, T. Nakajima, Y. Honda, O. Kitao, H. Nakai, 
 T. Vreven, K. Throssell, J. A. Montgomery, Jr., J. E. Peralta, 
 F. Ogliaro, M. J. Bearpark, J. J. Heyd, E. N. Brothers, K. N. Kudin, 
 V. N. Staroverov, T. A. Keith, R. Kobayashi, J. Normand, 
 K. Raghavachari, A. P. Rendell, J. C. Burant, S. S. Iyengar, 
 J. Tomasi, M. Cossi, J. M. Millam, M. Klene, C. Adamo, R. Cammi, 
 J. W. Ochterski, R. L. Martin, K. Morokuma, O. Farkas, 
 J. B. Foresman, and D. J. Fox, Gaussian, Inc., Wallingford CT, 2016.
 
 ******************************************
 Gaussian 16:  EM64L-G16RevA.03 25-Dec-2016
                 9-Jun-2023 
 ******************************************
 --------------------------------------------------------------------
 #p CAM-B3lYP gen pseudo=read TD(Nstates=200) empiricaldispersion=gd3
 --------------------------------------------------------------------
 1/38=1,172=1/1;
 2/12=2,17=6,18=5,40=1/2;
 3/5=7,11=9,16=1,17=8,25=1,30=1,74=-40,124=31/1,2,3,8;
 4//1;
 5/5=2,38=5/2;
 8/6=1,10=1,108=200/1;
 9/41=200,42=1,70=2/14;
 6/7=2,8=2,9=2,10=2/1;
 99/5=1,9=1/99;
 Leave Link    1 at Fri Jun  9 10:03:24 2023, MaxMem=  8589934592 cpu:               6.5 elap:               0.1
 
 ------
 Step 2
 ------
 Symbolic Z-matrix:
 Charge = -3 Multiplicity = 1
 Cd                    8.17682   1.66028  -0.12768 
 C                     6.67092   4.29498  -0.16883 
 C                     6.38797   3.8022   -1.57342 
 C                     5.5109    4.47349  -2.42344 
 H                     5.0977    5.26655  -2.16686 
 C                     5.28017   3.91038  -3.66857 
 H                     4.69343   4.30806  -4.27062 
 C                     5.94218   2.74738  -3.99451 
 C                     6.80677   2.13343  -3.10697 
 H                     7.24195   1.34837  -3.34992 
 N                     7.01817   2.66462  -1.90522 
 N                     5.72557   2.14479  -5.31702 
 O                     7.09832   3.50955   0.67533 
 O                     6.45978   5.53371   0.0211 
 O                     5.25567   2.85503  -6.194 
 O                     6.06048   0.98071  -5.48937 
 C                     10.74619   2.51965   1.32486 
 C                     10.21261   1.41724   2.22529 
 C                     10.93187   0.93689   3.30042 
 H                     11.76388   1.29997   3.50167 
 C                     10.42323  -0.07357   4.07071 
 H                     10.90832  -0.42813   4.78009 
 C                     9.16004  -0.54904   3.75767 
 C                     8.4594   -0.03462   2.66965 
 H                     7.61908  -0.37399   2.46105 
 N                     8.98047   0.93797   1.92749 
 N                     8.56361  -1.63361   4.51976 
 O                     10.02647   2.91994   0.38222 
 O                     11.88842   2.95781   1.61797 
 O                     7.35335  -1.83051   4.36383 
 O                     9.27718  -2.27082   5.26543 
 Cd                    8.17682   7.06958  -0.12768 
 O                     6.45978   0.12441   0.0211 
 O                     9.10918   0.25316  -1.61797 
 C                     10.25141  -0.185    -1.32486 
 C                     10.78499  -1.28741  -2.22529 
 C                     10.06573  -1.76776  -3.30042 
 H                     9.23372  -1.40468  -3.50167 
 C                     10.57437  -2.77822  -4.07071 
 H                     10.08928  -3.13278  -4.78009 
 C                     11.83756  -3.25369  -3.75767 
 C                     12.5382  -2.73927  -2.66965 
 H                     13.37852  -3.07864  -2.46105 
 N                     12.01713  -1.76668  -1.92749 
 N                     12.43399  -4.33826  -4.51976 
 O                     10.97113   0.21529  -0.38222 
 O                     13.64425  -4.53516  -4.36383 
 O                     11.72042  -4.97547  -5.26543 
 C                     6.67092   9.70428  -0.16883 
 C                     6.38797   9.2115   -1.57342 
 C                     5.5109    9.88279  -2.42344 
 H                     5.0977    10.67585  -2.16686 
 C                     5.28017   9.31968  -3.66857 
 H                     4.69343   9.71736  -4.27062 
 C                     5.94218   8.15668  -3.99451 
 C                     6.80677   7.54273  -3.10697 
 H                     7.24195   6.75767  -3.34992 
 N                     7.01817   8.07392  -1.90522 
 N                     5.72557   7.55409  -5.31702 
 O                     7.09832   8.91885   0.67533 
 O                     6.45978   10.94301   0.0211 
 O                     5.25567   8.26433  -6.194 
 O                     6.06048   6.39001  -5.48937 
 C                     10.74619   7.92895   1.32486 
 C                     10.21261   6.82654   2.22529 
 C                     10.93187   6.34619   3.30042 
 H                     11.76388   6.70927   3.50167 
 C                     10.42323   5.33573   4.07071 
 H                     10.90832   4.98117   4.78009 
 C                     9.16004   4.86026   3.75767 
 C                     8.4594    5.37468   2.66965 
 H                     7.61908   5.03531   2.46105 
 N                     8.98047   6.34727   1.92749 
 N                     8.56361   3.77569   4.51976 
 O                     10.02647   8.32924   0.38222 
 O                     11.88842   8.36711   1.61797 
 O                     7.35335   3.57879   4.36383 
 O                     9.27718   3.13848   5.26543 
 O                     9.10918   5.66245  -1.61797 
 C                     10.25141   5.2243   -1.32486 
 C                     10.78499   4.12189  -2.22529 
 C                     10.06573   3.64154  -3.30042 
 H                     9.23372   4.00462  -3.50167 
 C                     10.57437   2.63108  -4.07071 
 H                     10.08928   2.27652  -4.78009 
 C                     11.83756   2.15561  -3.75767 
 C                     12.5382   2.67003  -2.66965 
 H                     13.37852   2.33066  -2.46105 
 N                     12.01713   3.64262  -1.92749 
 N                     12.43399   1.07104  -4.51976 
 O                     10.97113   5.62459  -0.38222 
 O                     13.64425   0.87414  -4.36383 
 O                     11.72042   0.43383  -5.26543 
 C                     6.67092  -1.11432  -0.16883 
 C                     6.38797  -1.6071   -1.57342 
 C                     5.5109   -0.93581  -2.42344 
 H                     5.0977   -0.14275  -2.16686 
 C                     5.28017  -1.49892  -3.66857 
 H                     4.69343  -1.10124  -4.27062 
 C                     5.94218  -2.66192  -3.99451 
 C                     6.80677  -3.27587  -3.10697 
 H                     7.24195  -4.06093  -3.34992 
 N                     7.01817  -2.74468  -1.90522 
 N                     5.72557  -3.26451  -5.31702 
 O                     7.09832  -1.89975   0.67533 
 O                     5.25567  -2.55427  -6.194 
 O                     6.06048  -4.42859  -5.48937 
 
 ITRead=  0  0  0  0  0  0  0  0  0  0  0  0  0  0  0  0  0  0  0  0
 ITRead=  0  0  0  0  0  0  0  0  0  0  0  0  0  0  0  0  0  0  0  0
 ITRead=  0  0  0  0  0  0  0  0  0  0  0  0  0  0  0  0  0  0  0  0
 ITRead=  0  0  0  0  0  0  0  0  0  0  0  0  0  0  0  0  0  0  0  0
 ITRead=  0  0  0  0  0  0  0  0  0  0  0  0  0  0  0  0  0  0  0  0
 ITRead=  0  0  0  0  0  0  0
 MicOpt= -1 -1 -1 -1 -1 -1 -1 -1 -1 -1 -1 -1 -1 -1 -1 -1 -1 -1 -1 -1
 MicOpt= -1 -1 -1 -1 -1 -1 -1 -1 -1 -1 -1 -1 -1 -1 -1 -1 -1 -1 -1 -1
 MicOpt= -1 -1 -1 -1 -1 -1 -1 -1 -1 -1 -1 -1 -1 -1 -1 -1 -1 -1 -1 -1
 MicOpt= -1 -1 -1 -1 -1 -1 -1 -1 -1 -1 -1 -1 -1 -1 -1 -1 -1 -1 -1 -1
 MicOpt= -1 -1 -1 -1 -1 -1 -1 -1 -1 -1 -1 -1 -1 -1 -1 -1 -1 -1 -1 -1
 MicOpt= -1 -1 -1 -1 -1 -1 -1
 NAtoms=    107 NQM=      107 NQMF=       0 NMMI=      0 NMMIF=      0
                NMic=       0 NMicF=      0.
                    Isotopes and Nuclear Properties:
 (Nuclear quadrupole moments (NQMom) in fm**2, nuclear magnetic moments (NMagM)
  in nuclear magnetons)

  Atom         1           2           3           4           5           6           7           8           9          10
 IAtWgt=         114          12          12          12           1          12           1          12          12           1
 AtmWgt= 113.9036000  12.0000000  12.0000000  12.0000000   1.0078250  12.0000000   1.0078250  12.0000000  12.0000000   1.0078250
 NucSpn=           0           0           0           0           1           0           1           0           0           1
 AtZEff=  -0.0000000  -0.0000000  -0.0000000  -0.0000000  -0.0000000  -0.0000000  -0.0000000  -0.0000000  -0.0000000  -0.0000000
 NQMom=    0.0000000   0.0000000   0.0000000   0.0000000   0.0000000   0.0000000   0.0000000   0.0000000   0.0000000   0.0000000
 NMagM=    0.0000000   0.0000000   0.0000000   0.0000000   2.7928460   0.0000000   2.7928460   0.0000000   0.0000000   2.7928460
 AtZNuc=  48.0000000   6.0000000   6.0000000   6.0000000   1.0000000   6.0000000   1.0000000   6.0000000   6.0000000   1.0000000

  Atom        11          12          13          14          15          16          17          18          19          20
 IAtWgt=          14          14          16          16          16          16          12          12          12           1
 AtmWgt=  14.0030740  14.0030740  15.9949146  15.9949146  15.9949146  15.9949146  12.0000000  12.0000000  12.0000000   1.0078250
 NucSpn=           2           2           0           0           0           0           0           0           0           1
 AtZEff=  -0.0000000  -0.0000000  -0.0000000  -0.0000000  -0.0000000  -0.0000000  -0.0000000  -0.0000000  -0.0000000  -0.0000000
 NQMom=    2.0440000   2.0440000   0.0000000   0.0000000   0.0000000   0.0000000   0.0000000   0.0000000   0.0000000   0.0000000
 NMagM=    0.4037610   0.4037610   0.0000000   0.0000000   0.0000000   0.0000000   0.0000000   0.0000000   0.0000000   2.7928460
 AtZNuc=   7.0000000   7.0000000   8.0000000   8.0000000   8.0000000   8.0000000   6.0000000   6.0000000   6.0000000   1.0000000

  Atom        21          22          23          24          25          26          27          28          29          30
 IAtWgt=          12           1          12          12           1          14          14          16          16          16
 AtmWgt=  12.0000000   1.0078250  12.0000000  12.0000000   1.0078250  14.0030740  14.0030740  15.9949146  15.9949146  15.9949146
 NucSpn=           0           1           0           0           1           2           2           0           0           0
 AtZEff=  -0.0000000  -0.0000000  -0.0000000  -0.0000000  -0.0000000  -0.0000000  -0.0000000  -0.0000000  -0.0000000  -0.0000000
 NQMom=    0.0000000   0.0000000   0.0000000   0.0000000   0.0000000   2.0440000   2.0440000   0.0000000   0.0000000   0.0000000
 NMagM=    0.0000000   2.7928460   0.0000000   0.0000000   2.7928460   0.4037610   0.4037610   0.0000000   0.0000000   0.0000000
 AtZNuc=   6.0000000   1.0000000   6.0000000   6.0000000   1.0000000   7.0000000   7.0000000   8.0000000   8.0000000   8.0000000

  Atom        31          32          33          34          35          36          37          38          39          40
 IAtWgt=          16         114          16          16          12          12          12           1          12           1
 AtmWgt=  15.9949146 113.9036000  15.9949146  15.9949146  12.0000000  12.0000000  12.0000000   1.0078250  12.0000000   1.0078250
 NucSpn=           0           0           0           0           0           0           0           1           0           1
 AtZEff=  -0.0000000  -0.0000000  -0.0000000  -0.0000000  -0.0000000  -0.0000000  -0.0000000  -0.0000000  -0.0000000  -0.0000000
 NQMom=    0.0000000   0.0000000   0.0000000   0.0000000   0.0000000   0.0000000   0.0000000   0.0000000   0.0000000   0.0000000
 NMagM=    0.0000000   0.0000000   0.0000000   0.0000000   0.0000000   0.0000000   0.0000000   2.7928460   0.0000000   2.7928460
 AtZNuc=   8.0000000  48.0000000   8.0000000   8.0000000   6.0000000   6.0000000   6.0000000   1.0000000   6.0000000   1.0000000

  Atom        41          42          43          44          45          46          47          48          49          50
 IAtWgt=          12          12           1          14          14          16          16          16          12          12
 AtmWgt=  12.0000000  12.0000000   1.0078250  14.0030740  14.0030740  15.9949146  15.9949146  15.9949146  12.0000000  12.0000000
 NucSpn=           0           0           1           2           2           0           0           0           0           0
 AtZEff=  -0.0000000  -0.0000000  -0.0000000  -0.0000000  -0.0000000  -0.0000000  -0.0000000  -0.0000000  -0.0000000  -0.0000000
 NQMom=    0.0000000   0.0000000   0.0000000   2.0440000   2.0440000   0.0000000   0.0000000   0.0000000   0.0000000   0.0000000
 NMagM=    0.0000000   0.0000000   2.7928460   0.4037610   0.4037610   0.0000000   0.0000000   0.0000000   0.0000000   0.0000000
 AtZNuc=   6.0000000   6.0000000   1.0000000   7.0000000   7.0000000   8.0000000   8.0000000   8.0000000   6.0000000   6.0000000

  Atom        51          52          53          54          55          56          57          58          59          60
 IAtWgt=          12           1          12           1          12          12           1          14          14          16
 AtmWgt=  12.0000000   1.0078250  12.0000000   1.0078250  12.0000000  12.0000000   1.0078250  14.0030740  14.0030740  15.9949146
 NucSpn=           0           1           0           1           0           0           1           2           2           0
 AtZEff=  -0.0000000  -0.0000000  -0.0000000  -0.0000000  -0.0000000  -0.0000000  -0.0000000  -0.0000000  -0.0000000  -0.0000000
 NQMom=    0.0000000   0.0000000   0.0000000   0.0000000   0.0000000   0.0000000   0.0000000   2.0440000   2.0440000   0.0000000
 NMagM=    0.0000000   2.7928460   0.0000000   2.7928460   0.0000000   0.0000000   2.7928460   0.4037610   0.4037610   0.0000000
 AtZNuc=   6.0000000   1.0000000   6.0000000   1.0000000   6.0000000   6.0000000   1.0000000   7.0000000   7.0000000   8.0000000

  Atom        61          62          63          64          65          66          67          68          69          70
 IAtWgt=          16          16          16          12          12          12           1          12           1          12
 AtmWgt=  15.9949146  15.9949146  15.9949146  12.0000000  12.0000000  12.0000000   1.0078250  12.0000000   1.0078250  12.0000000
 NucSpn=           0           0           0           0           0           0           1           0           1           0
 AtZEff=  -0.0000000  -0.0000000  -0.0000000  -0.0000000  -0.0000000  -0.0000000  -0.0000000  -0.0000000  -0.0000000  -0.0000000
 NQMom=    0.0000000   0.0000000   0.0000000   0.0000000   0.0000000   0.0000000   0.0000000   0.0000000   0.0000000   0.0000000
 NMagM=    0.0000000   0.0000000   0.0000000   0.0000000   0.0000000   0.0000000   2.7928460   0.0000000   2.7928460   0.0000000
 AtZNuc=   8.0000000   8.0000000   8.0000000   6.0000000   6.0000000   6.0000000   1.0000000   6.0000000   1.0000000   6.0000000

  Atom        71          72          73          74          75          76          77          78          79          80
 IAtWgt=          12           1          14          14          16          16          16          16          16          12
 AtmWgt=  12.0000000   1.0078250  14.0030740  14.0030740  15.9949146  15.9949146  15.9949146  15.9949146  15.9949146  12.0000000
 NucSpn=           0           1           2           2           0           0           0           0           0           0
 AtZEff=  -0.0000000  -0.0000000  -0.0000000  -0.0000000  -0.0000000  -0.0000000  -0.0000000  -0.0000000  -0.0000000  -0.0000000
 NQMom=    0.0000000   0.0000000   2.0440000   2.0440000   0.0000000   0.0000000   0.0000000   0.0000000   0.0000000   0.0000000
 NMagM=    0.0000000   2.7928460   0.4037610   0.4037610   0.0000000   0.0000000   0.0000000   0.0000000   0.0000000   0.0000000
 AtZNuc=   6.0000000   1.0000000   7.0000000   7.0000000   8.0000000   8.0000000   8.0000000   8.0000000   8.0000000   6.0000000

  Atom        81          82          83          84          85          86          87          88          89          90
 IAtWgt=          12          12           1          12           1          12          12           1          14          14
 AtmWgt=  12.0000000  12.0000000   1.0078250  12.0000000   1.0078250  12.0000000  12.0000000   1.0078250  14.0030740  14.0030740
 NucSpn=           0           0           1           0           1           0           0           1           2           2
 AtZEff=  -0.0000000  -0.0000000  -0.0000000  -0.0000000  -0.0000000  -0.0000000  -0.0000000  -0.0000000  -0.0000000  -0.0000000
 NQMom=    0.0000000   0.0000000   0.0000000   0.0000000   0.0000000   0.0000000   0.0000000   0.0000000   2.0440000   2.0440000
 NMagM=    0.0000000   0.0000000   2.7928460   0.0000000   2.7928460   0.0000000   0.0000000   2.7928460   0.4037610   0.4037610
 AtZNuc=   6.0000000   6.0000000   1.0000000   6.0000000   1.0000000   6.0000000   6.0000000   1.0000000   7.0000000   7.0000000

  Atom        91          92          93          94          95          96          97          98          99         100
 IAtWgt=          16          16          16          12          12          12           1          12           1          12
 AtmWgt=  15.9949146  15.9949146  15.9949146  12.0000000  12.0000000  12.0000000   1.0078250  12.0000000   1.0078250  12.0000000
 NucSpn=           0           0           0           0           0           0           1           0           1           0
 AtZEff=  -0.0000000  -0.0000000  -0.0000000  -0.0000000  -0.0000000  -0.0000000  -0.0000000  -0.0000000  -0.0000000  -0.0000000
 NQMom=    0.0000000   0.0000000   0.0000000   0.0000000   0.0000000   0.0000000   0.0000000   0.0000000   0.0000000   0.0000000
 NMagM=    0.0000000   0.0000000   0.0000000   0.0000000   0.0000000   0.0000000   2.7928460   0.0000000   2.7928460   0.0000000
 AtZNuc=   8.0000000   8.0000000   8.0000000   6.0000000   6.0000000   6.0000000   1.0000000   6.0000000   1.0000000   6.0000000

  Atom       101         102         103         104         105         106         107
 IAtWgt=          12           1          14          14          16          16          16
 AtmWgt=  12.0000000   1.0078250  14.0030740  14.0030740  15.9949146  15.9949146  15.9949146
 NucSpn=           0           1           2           2           0           0           0
 AtZEff=  -0.0000000  -0.0000000  -0.0000000  -0.0000000  -0.0000000  -0.0000000  -0.0000000
 NQMom=    0.0000000   0.0000000   2.0440000   2.0440000   0.0000000   0.0000000   0.0000000
 NMagM=    0.0000000   2.7928460   0.4037610   0.4037610   0.0000000   0.0000000   0.0000000
 AtZNuc=   6.0000000   1.0000000   7.0000000   7.0000000   8.0000000   8.0000000   8.0000000
 Leave Link  101 at Fri Jun  9 10:03:24 2023, MaxMem=  8589934592 cpu:               7.4 elap:               0.2
 
 Stoichiometry    C42H21Cd2N14O28(3-)
 Framework group  C1[X(C42H21Cd2N14O28)]
 Deg. of freedom   315
 Full point group                 C1      NOp   1
 Largest Abelian subgroup         C1      NOp   1
 Largest concise Abelian subgroup C1      NOp   1
                         Standard orientation:                         
 ---------------------------------------------------------------------
 Center     Atomic      Atomic             Coordinates (Angstroms)
 Number     Number       Type             X           Y           Z
 ---------------------------------------------------------------------
      1         48           0       -0.693550    0.864158   -0.900684
      2          6           0        2.046109   -0.180643   -1.684095
      3          6           0        1.279748   -1.484053   -1.586227
      4          6           0        1.849814   -2.699860   -1.959395
      5          1           0        2.732662   -2.753968   -2.247776
      6          6           0        1.046273   -3.826376   -1.882183
      7          1           0        1.370326   -4.661481   -2.132116
      8          6           0       -0.244588   -3.680260   -1.424591
      9          6           0       -0.748842   -2.444588   -1.062624
     10          1           0       -1.623966   -2.371230   -0.756844
     11          7           0        0.016538   -1.359426   -1.150223
     12          7           0       -1.106521   -4.865446   -1.317481
     13          8           0        1.430590    0.882096   -1.746553
     14          8           0        3.311587   -0.296204   -1.666357
     15          8           0       -0.564822   -5.961160   -1.299747
     16          8           0       -2.314173   -4.700525   -1.211041
     17          6           0        0.102971    2.998757    1.163073
     18          6           0       -0.663455    3.809575    0.130621
     19          6           0       -0.973574    5.139755    0.326638
     20          1           0       -0.698288    5.570954    1.103074
     21          6           0       -1.686325    5.825441   -0.619360
     22          1           0       -1.928602    6.713404   -0.488719
     23          6           0       -2.033299    5.151064   -1.778903
     24          6           0       -1.696248    3.810251   -1.946019
     25          1           0       -1.949305    3.365227   -2.722382
     26          7           0       -1.014975    3.161292   -1.006356
     27          7           0       -2.806370    5.809230   -2.819086
     28          8           0        0.367824    1.802931    0.904901
     29          8           0        0.427004    3.616330    2.210065
     30          8           0       -2.856158    5.250593   -3.920566
     31          8           0       -3.344724    6.863245   -2.553622
     32         48           0        4.500696   -0.054817    0.297571
     33          8           0       -1.882659    0.622771   -2.864611
     34          8           0       -2.535450    0.089510    0.137380
     35          6           0       -3.052897    0.855959    0.990252
     36          6           0       -4.403636    0.419714    1.534297
     37          6           0       -5.016023   -0.747255    1.125469
     38          1           0       -4.594018   -1.301820    0.509889
     39          6           0       -6.243847   -1.089610    1.623798
     40          1           0       -6.682498   -1.857103    1.336074
     41          6           0       -6.810008   -0.253681    2.572691
     42          6           0       -6.159122    0.912345    2.967713
     43          1           0       -6.557821    1.472679    3.593724
     44          7           0       -4.972547    1.230841    2.458941
     45          7           0       -8.119840   -0.543336    3.132371
     46          8           0       -2.548998    1.915776    1.425766
     47          8           0       -8.448196    0.082203    4.146618
     48          8           0       -8.805240   -1.380842    2.584602
     49          6           0        7.240355   -1.099618   -0.485841
     50          6           0        6.473994   -2.403028   -0.387973
     51          6           0        7.044060   -3.618835   -0.761141
     52          1           0        7.926908   -3.672943   -1.049522
     53          6           0        6.240519   -4.745351   -0.683929
     54          1           0        6.564573   -5.580456   -0.933862
     55          6           0        4.949658   -4.599235   -0.226337
     56          6           0        4.445405   -3.363562    0.135630
     57          1           0        3.570280   -3.290205    0.441410
     58          7           0        5.210784   -2.278400    0.048031
     59          7           0        4.087726   -5.784421   -0.119227
     60          8           0        6.624836   -0.036879   -0.548298
     61          8           0        8.505834   -1.215179   -0.468102
     62          8           0        4.629425   -6.880135   -0.101493
     63          8           0        2.880074   -5.619500   -0.012787
     64          6           0        5.297218    2.079782    2.361327
     65          6           0        4.530792    2.890600    1.328876
     66          6           0        4.220673    4.220780    1.524892
     67          1           0        4.495959    4.651980    2.301329
     68          6           0        3.507921    4.906466    0.578894
     69          1           0        3.265644    5.794430    0.709536
     70          6           0        3.160948    4.232089   -0.580649
     71          6           0        3.497999    2.891276   -0.747765
     72          1           0        3.244942    2.446252   -1.524128
     73          7           0        4.179271    2.242318    0.191898
     74          7           0        2.387876    4.890255   -1.620831
     75          8           0        5.562070    0.883957    2.103155
     76          8           0        5.621251    2.697355    3.408320
     77          8           0        2.338088    4.331618   -2.722312
     78          8           0        1.849523    5.944270   -1.355368
     79          8           0        2.658788   -0.829463    1.335632
     80          6           0        2.141350   -0.063016    2.188506
     81          6           0        0.790611   -0.499261    2.732552
     82          6           0        0.178223   -1.666230    2.323723
     83          1           0        0.600228   -2.220795    1.708144
     84          6           0       -1.049601   -2.008585    2.822052
     85          1           0       -1.488252   -2.776078    2.534328
     86          6           0       -1.615761   -1.172655    3.770945
     87          6           0       -0.964875   -0.006630    4.165968
     88          1           0       -1.363574    0.553704    4.791978
     89          7           0        0.221699    0.311866    3.657195
     90          7           0       -2.925593   -1.462311    4.330626
     91          8           0        2.645249    0.996801    2.624020
     92          8           0       -3.253949   -0.836772    5.344872
     93          8           0       -3.610994   -2.299817    3.782856
     94          6           0       -3.148138    0.738332   -2.882350
     95          6           0       -3.914499   -0.565078   -2.784482
     96          6           0       -3.344433   -1.780885   -3.157649
     97          1           0       -2.461585   -1.834993   -3.446031
     98          6           0       -4.147974   -2.907401   -3.080438
     99          1           0       -3.823921   -3.742506   -3.330370
    100          6           0       -5.438835   -2.761285   -2.622845
    101          6           0       -5.943088   -1.525613   -2.260878
    102          1           0       -6.818213   -1.452256   -1.955099
    103          7           0       -5.177709   -0.440451   -2.348478
    104          7           0       -6.300768   -3.946471   -2.515735
    105          8           0       -3.763657    1.801070   -2.944807
    106          8           0       -5.759069   -5.042185   -2.498001
    107          8           0       -7.508420   -3.781550   -2.409295
 ---------------------------------------------------------------------
 Rotational constants (GHZ):           0.0275148           0.0174784           0.0142618
 Leave Link  202 at Fri Jun  9 10:03:24 2023, MaxMem=  8589934592 cpu:               1.7 elap:               0.1
 General basis read from cards:  (5D, 7F)
 Centers:       2      3      4      6      8      9     17     18     19     21
 Centers:      23     24     35     36     37     39     41     42     49     50
 Centers:      51     53     55     56     64     65     66     68     70     71
 Centers:      80     81     82     84     86     87     94     95     96     98
 Centers:     100    101      5      7     10     20     22     25     38     40
 Centers:      43     52     54     57     67     69     72     83     85     88
 Centers:      97     99    102     11     12     26     27     44     45     58
 Centers:      59     73     74     89     90    103    104     13     14     15
 Centers:      16     28     29     30     31     33     34     46     47     48
 Centers:      60     61     62     63     75     76     77     78     79     91
 Centers:      92     93    105    106    107
 6-31G**
 ****
 Centers:       1     32
 S 2 1.00
     Exponent=  5.0950000000D-01 Coefficients= -1.2713002000D+00
     Exponent=  1.9240000000D-01 Coefficients=  1.8002112000D+00
 S 1 1.00
     Exponent=  5.4400000000D-02 Coefficients=  1.0000000000D+00
 P 2 1.00
     Exponent=  8.2700000000D-01 Coefficients= -1.0830200000D-01
     Exponent=  1.2870000000D-01 Coefficients=  1.0367049000D+00
 P 1 1.00
     Exponent=  4.0500000000D-02 Coefficients=  1.0000000000D+00
 D 3 1.00
     Exponent=  5.1480000000D+00 Coefficients=  7.0307100000D-02
     Exponent=  1.9660000000D+00 Coefficients=  5.1384270000D-01
     Exponent=  7.3600000000D-01 Coefficients=  5.4167580000D-01
 D 1 1.00
     Exponent=  2.4790000000D-01 Coefficients=  1.0000000000D+00
 ****
 ======================================================================================================
                                       Pseudopotential Parameters
 ======================================================================================================
  Center     Atomic      Valence      Angular      Power
  Number     Number     Electrons     Momentum     of R      Exponent        Coefficient   SO-Coeffient
 ======================================================================================================
    1         48           12
                                      F and up 
                                                     0      350.0762490       -0.06132140    0.00000000
                                                     1       81.1757778      -24.93555930    0.00000000
                                                     2       24.7747818      -87.77287650    0.00000000
                                                     2       12.5760330      -19.06650300    0.00000000
                                                     2        4.9889712      -16.19012540    0.00000000
                                                     2        1.8449910       -3.94412540    0.00000000
                                                     2        0.5309494       -0.30974760    0.00000000
                                      S - F
                                                     0       54.5786193        2.90501020    0.00000000
                                                     1       16.0082316       39.62891980    0.00000000
                                                     2        5.2767462       57.44357900    0.00000000
                                                     2        0.9731070       90.23511660    0.00000000
                                                     2        0.9305646      -71.71392360    0.00000000
                                      P - F
                                                     0       41.3581766        1.95854630    0.00000000
                                                     1       12.1214982       37.56698440    0.00000000
                                                     2        3.4478806       44.08751040    0.00000000
                                                     2        0.9362175       12.56785990    0.00000000
                                      D - F
                                                     0       85.3710499        2.97534990    0.00000000
                                                     1       73.0500781       24.70543730    0.00000000
                                                     2       28.4262887      218.21631430    0.00000000
                                                     2        3.9450158      118.99453700    0.00000000
                                                     2        3.5349379      -82.49996710    0.00000000
                                                     2        0.6482194       -0.24137580    0.00000000
    2          6
                                   No pseudopotential on this center.
    3          6
                                   No pseudopotential on this center.
    4          6
                                   No pseudopotential on this center.
    5          1
                                   No pseudopotential on this center.
    6          6
                                   No pseudopotential on this center.
    7          1
                                   No pseudopotential on this center.
    8          6
                                   No pseudopotential on this center.
    9          6
                                   No pseudopotential on this center.
   10          1
                                   No pseudopotential on this center.
   11          7
                                   No pseudopotential on this center.
   12          7
                                   No pseudopotential on this center.
   13          8
                                   No pseudopotential on this center.
   14          8
                                   No pseudopotential on this center.
   15          8
                                   No pseudopotential on this center.
   16          8
                                   No pseudopotential on this center.
   17          6
                                   No pseudopotential on this center.
   18          6
                                   No pseudopotential on this center.
   19          6
                                   No pseudopotential on this center.
   20          1
                                   No pseudopotential on this center.
   21          6
                                   No pseudopotential on this center.
   22          1
                                   No pseudopotential on this center.
   23          6
                                   No pseudopotential on this center.
   24          6
                                   No pseudopotential on this center.
   25          1
                                   No pseudopotential on this center.
   26          7
                                   No pseudopotential on this center.
   27          7
                                   No pseudopotential on this center.
   28          8
                                   No pseudopotential on this center.
   29          8
                                   No pseudopotential on this center.
   30          8
                                   No pseudopotential on this center.
   31          8
                                   No pseudopotential on this center.
   32         48           12
                                      F and up 
                                                     0      350.0762490       -0.06132140    0.00000000
                                                     1       81.1757778      -24.93555930    0.00000000
                                                     2       24.7747818      -87.77287650    0.00000000
                                                     2       12.5760330      -19.06650300    0.00000000
                                                     2        4.9889712      -16.19012540    0.00000000
                                                     2        1.8449910       -3.94412540    0.00000000
                                                     2        0.5309494       -0.30974760    0.00000000
                                      S - F
                                                     0       54.5786193        2.90501020    0.00000000
                                                     1       16.0082316       39.62891980    0.00000000
                                                     2        5.2767462       57.44357900    0.00000000
                                                     2        0.9731070       90.23511660    0.00000000
                                                     2        0.9305646      -71.71392360    0.00000000
                                      P - F
                                                     0       41.3581766        1.95854630    0.00000000
                                                     1       12.1214982       37.56698440    0.00000000
                                                     2        3.4478806       44.08751040    0.00000000
                                                     2        0.9362175       12.56785990    0.00000000
                                      D - F
                                                     0       85.3710499        2.97534990    0.00000000
                                                     1       73.0500781       24.70543730    0.00000000
                                                     2       28.4262887      218.21631430    0.00000000
                                                     2        3.9450158      118.99453700    0.00000000
                                                     2        3.5349379      -82.49996710    0.00000000
                                                     2        0.6482194       -0.24137580    0.00000000
   33          8
                                   No pseudopotential on this center.
   34          8
                                   No pseudopotential on this center.
   35          6
                                   No pseudopotential on this center.
   36          6
                                   No pseudopotential on this center.
   37          6
                                   No pseudopotential on this center.
   38          1
                                   No pseudopotential on this center.
   39          6
                                   No pseudopotential on this center.
   40          1
                                   No pseudopotential on this center.
   41          6
                                   No pseudopotential on this center.
   42          6
                                   No pseudopotential on this center.
   43          1
                                   No pseudopotential on this center.
   44          7
                                   No pseudopotential on this center.
   45          7
                                   No pseudopotential on this center.
   46          8
                                   No pseudopotential on this center.
   47          8
                                   No pseudopotential on this center.
   48          8
                                   No pseudopotential on this center.
   49          6
                                   No pseudopotential on this center.
   50          6
                                   No pseudopotential on this center.
   51          6
                                   No pseudopotential on this center.
   52          1
                                   No pseudopotential on this center.
   53          6
                                   No pseudopotential on this center.
   54          1
                                   No pseudopotential on this center.
   55          6
                                   No pseudopotential on this center.
   56          6
                                   No pseudopotential on this center.
   57          1
                                   No pseudopotential on this center.
   58          7
                                   No pseudopotential on this center.
   59          7
                                   No pseudopotential on this center.
   60          8
                                   No pseudopotential on this center.
   61          8
                                   No pseudopotential on this center.
   62          8
                                   No pseudopotential on this center.
   63          8
                                   No pseudopotential on this center.
   64          6
                                   No pseudopotential on this center.
   65          6
                                   No pseudopotential on this center.
   66          6
                                   No pseudopotential on this center.
   67          1
                                   No pseudopotential on this center.
   68          6
                                   No pseudopotential on this center.
   69          1
                                   No pseudopotential on this center.
   70          6
                                   No pseudopotential on this center.
   71          6
                                   No pseudopotential on this center.
   72          1
                                   No pseudopotential on this center.
   73          7
                                   No pseudopotential on this center.
   74          7
                                   No pseudopotential on this center.
   75          8
                                   No pseudopotential on this center.
   76          8
                                   No pseudopotential on this center.
   77          8
                                   No pseudopotential on this center.
   78          8
                                   No pseudopotential on this center.
   79          8
                                   No pseudopotential on this center.
   80          6
                                   No pseudopotential on this center.
   81          6
                                   No pseudopotential on this center.
   82          6
                                   No pseudopotential on this center.
   83          1
                                   No pseudopotential on this center.
   84          6
                                   No pseudopotential on this center.
   85          1
                                   No pseudopotential on this center.
   86          6
                                   No pseudopotential on this center.
   87          6
                                   No pseudopotential on this center.
   88          1
                                   No pseudopotential on this center.
   89          7
                                   No pseudopotential on this center.
   90          7
                                   No pseudopotential on this center.
   91          8
                                   No pseudopotential on this center.
   92          8
                                   No pseudopotential on this center.
   93          8
                                   No pseudopotential on this center.
   94          6
                                   No pseudopotential on this center.
   95          6
                                   No pseudopotential on this center.
   96          6
                                   No pseudopotential on this center.
   97          1
                                   No pseudopotential on this center.
   98          6
                                   No pseudopotential on this center.
   99          1
                                   No pseudopotential on this center.
  100          6
                                   No pseudopotential on this center.
  101          6
                                   No pseudopotential on this center.
  102          1
                                   No pseudopotential on this center.
  103          7
                                   No pseudopotential on this center.
  104          7
                                   No pseudopotential on this center.
  105          8
                                   No pseudopotential on this center.
  106          8
                                   No pseudopotential on this center.
  107          8
                                   No pseudopotential on this center.
 ======================================================================================================
 Ernie: Thresh=  0.10000D-02 Tol=  0.10000D-05 Strict=F.
 There are  1405 symmetry adapted cartesian basis functions of A   symmetry.
 There are  1317 symmetry adapted basis functions of A   symmetry.
  1317 basis functions,  2571 primitive gaussians,  1405 cartesian basis functions
   311 alpha electrons      311 beta electrons
       nuclear repulsion energy     17156.5648054558 Hartrees.
 IExCor=20419 DFT=T Ex+Corr=CAM-B3LYP ExCW=0 ScaHFX=  1.000000
 ScaDFX=  1.000000  1.000000  1.000000  0.810000 ScalE2=  1.000000  1.000000
 IRadAn=      5 IRanWt=     -1 IRanGd=            0 ICorTp=0 IEmpDi=131
 HFx  wShort=  0.000000 wLong=  0.330000 cFull=  0.190000 cShort=  0.000000 cLong=  0.460000
 DFx  wShort=  0.000000 wLong=  0.330000 cFull=  0.190000 cShort=  0.000000 cLong=  0.460000
 NAtoms=  107 NActive=  107 NUniq=  107 SFac= 1.00D+00 NAtFMM=   60 NAOKFM=T Big=T
 Integral buffers will be    131072 words long.
 Raffenetti 1 integral format.
 Two-electron integral symmetry is turned on.
 R6Disp:  Grimme-D3 Dispersion energy=       -0.1354458368 Hartrees.
 Nuclear repulsion after empirical dispersion term =    17156.4293596189 Hartrees.
 Leave Link  301 at Fri Jun  9 10:03:25 2023, MaxMem=  8589934592 cpu:              10.7 elap:               0.2
 NPDir=0 NMtPBC=     1 NCelOv=     1 NCel=       1 NClECP=     1 NCelD=      1
         NCelK=      1 NCelE2=     1 NClLst=     1 CellRange=     0.0.
 One-electron integrals computed using PRISM.
 One-electron integral symmetry used in STVInt
   1 Symmetry operations used in ECPInt.
 ECPInt:  NShTT=   84666 NPrTT=  552310 LenC2=   46419 LenP2D=  137684.
 LDataN:  DoStor=T MaxTD1= 5 Len=  102
 NBasis=  1317 RedAO= T EigKep=  5.08D-04  NBF=  1317
 NBsUse=  1317 1.00D-06 EigRej= -1.00D+00 NBFU=  1317
 Precomputing XC quadrature grid using
 IXCGrd= 4 IRadAn=           5 IRanWt=          -1 IRanGd=           0 AccXCQ= 0.00D+00.
 Defaulting to unpruned grid for atomic number  48.
 Defaulting to unpruned grid for atomic number  48.
 Generated NRdTot=       0 NPtTot=           0 NUsed=           0 NTot=          32
 NSgBfM=  1224  1213  1220  1224  1224 MxSgAt=   107 MxSgA2=   107.
 Leave Link  302 at Fri Jun  9 10:03:30 2023, MaxMem=  8589934592 cpu:             303.6 elap:               5.6
 DipDrv:  MaxL=1.
 Leave Link  303 at Fri Jun  9 10:03:31 2023, MaxMem=  8589934592 cpu:              11.6 elap:               0.3
 Leave Link  308 at Fri Jun  9 10:03:31 2023, MaxMem=  8589934592 cpu:              19.6 elap:               0.5
 ExpMin= 4.05D-02 ExpMax= 5.48D+03 ExpMxC= 8.25D+02 IAcc=3 IRadAn=         5 AccDes= 0.00D+00
 Harris functional with IExCor=20419 and IRadAn=       5 diagonalized for initial guess.
 HarFok:  IExCor=20419 AccDes= 0.00D+00 IRadAn=         5 IDoV= 1 UseB2=F ITyADJ=14
 ICtDFT=  3500011 ScaDFX=  1.000000  1.000000  1.000000  1.000000
 Defaulting to unpruned grid for atomic number  48.
 FoFCou: FMM=F IPFlag=           0 FMFlag=      100000 FMFlg1=        2001
         NFxFlg=           0 DoJE=T BraDBF=F KetDBF=T FulRan=T
         wScrn=  0.000000 ICntrl=       500 IOpCl=  0 I1Cent=   200000004 NGrid=           0
         NMat0=    1 NMatS0=      1 NMatT0=    0 NMatD0=    1 NMtDS0=    0 NMtDT0=    0
 Petite list used in FoFCou.
 Harris En= -4422.35847306510    
 JPrj=0 DoOrth=F DoCkMO=F.
 Leave Link  401 at Fri Jun  9 10:03:38 2023, MaxMem=  8589934592 cpu:             359.3 elap:               6.5
 Integral symmetry usage will be decided dynamically.
 Closed shell SCF:
 Using DIIS extrapolation, IDIIS=  1040.
 NGot=  8589934592 LenX=  8585893787 LenY=  8583918357
 Requested convergence on RMS density matrix=1.00D-08 within 128 cycles.
 Requested convergence on MAX density matrix=1.00D-06.
 Requested convergence on             energy=1.00D-06.
 No special actions if energy rises.
 Fock matrices will be formed incrementally for  20 cycles.

 Cycle   1  Pass 1  IDiag  1:
 FoFJK:  IHMeth= 1 ICntrl=       0 DoSepK=T KAlg= 0 I1Cent=           0 FoldK=F
 IRaf=         1 NMat=       1 IRICut=       1 DoRegI=T DoRafI=F ISym2E= 0 IDoP0=0 IntGTp=1.
 FoFCou: FMM=T IPFlag=           0 FMFlag=      100000 FMFlg1=        2001
         NFxFlg=           0 DoJE=T BraDBF=F KetDBF=F FulRan=T
         wScrn=  0.000000 ICntrl=       500 IOpCl=  0 I1Cent=           0 NGrid=           0
         NMat0=    1 NMatS0=      1 NMatT0=    0 NMatD0=    1 NMtDS0=    0 NMtDT0=    0
 Symmetry not used in FoFCou.
 FMM levels:  10  Number of levels for PrismC:   9
 Defaulting to unpruned grid for atomic number  48.
 Defaulting to unpruned grid for atomic number  48.
 Defaulting to unpruned grid for atomic number  48.
 Defaulting to unpruned grid for atomic number  48.
 Defaulting to unpruned grid for atomic number  48.
 Defaulting to unpruned grid for atomic number  48.
 Defaulting to unpruned grid for atomic number  48.
 Defaulting to unpruned grid for atomic number  48.
 Defaulting to unpruned grid for atomic number  48.
 Defaulting to unpruned grid for atomic number  48.
 Defaulting to unpruned grid for atomic number  48.
 Defaulting to unpruned grid for atomic number  48.
 Defaulting to unpruned grid for atomic number  48.
 Defaulting to unpruned grid for atomic number  48.
 Defaulting to unpruned grid for atomic number  48.
 Defaulting to unpruned grid for atomic number  48.
 Defaulting to unpruned grid for atomic number  48.
 Defaulting to unpruned grid for atomic number  48.
 Defaulting to unpruned grid for atomic number  48.
 Defaulting to unpruned grid for atomic number  48.
 Defaulting to unpruned grid for atomic number  48.
 Defaulting to unpruned grid for atomic number  48.
 Defaulting to unpruned grid for atomic number  48.
 Defaulting to unpruned grid for atomic number  48.
 Defaulting to unpruned grid for atomic number  48.
 Defaulting to unpruned grid for atomic number  48.
 Defaulting to unpruned grid for atomic number  48.
 Defaulting to unpruned grid for atomic number  48.
 Defaulting to unpruned grid for atomic number  48.
 Defaulting to unpruned grid for atomic number  48.
 Defaulting to unpruned grid for atomic number  48.
 Defaulting to unpruned grid for atomic number  48.
 Defaulting to unpruned grid for atomic number  48.
 Defaulting to unpruned grid for atomic number  48.
 Defaulting to unpruned grid for atomic number  48.
 Defaulting to unpruned grid for atomic number  48.
 Defaulting to unpruned grid for atomic number  48.
 Defaulting to unpruned grid for atomic number  48.
 Defaulting to unpruned grid for atomic number  48.
 Defaulting to unpruned grid for atomic number  48.
 Defaulting to unpruned grid for atomic number  48.
 Defaulting to unpruned grid for atomic number  48.
 Defaulting to unpruned grid for atomic number  48.
 Defaulting to unpruned grid for atomic number  48.
 Defaulting to unpruned grid for atomic number  48.
 Defaulting to unpruned grid for atomic number  48.
 Defaulting to unpruned grid for atomic number  48.
 Defaulting to unpruned grid for atomic number  48.
 Defaulting to unpruned grid for atomic number  48.
 Defaulting to unpruned grid for atomic number  48.
 Defaulting to unpruned grid for atomic number  48.
 Defaulting to unpruned grid for atomic number  48.
 Defaulting to unpruned grid for atomic number  48.
 Defaulting to unpruned grid for atomic number  48.
 Defaulting to unpruned grid for atomic number  48.
 Defaulting to unpruned grid for atomic number  48.
 E= -4577.68732135894    
 DIIS: error= 5.01D-02 at cycle   1 NSaved=   1.
 NSaved= 1 IEnMin= 1 EnMin= -4577.68732135894     IErMin= 1 ErrMin= 5.01D-02
 ErrMax= 5.01D-02  0.00D+00 EMaxC= 1.00D-01 BMatC= 2.42D+00 BMatP= 2.42D+00
 IDIUse=3 WtCom= 4.99D-01 WtEn= 5.01D-01
 Coeff-Com:  0.100D+01
 Coeff-En:   0.100D+01
 Coeff:      0.100D+01
 Gap=     0.490 Goal=   None    Shift=    0.000
 GapD=    0.490 DampG=2.000 DampE=0.250 DampFc=0.5000 IDamp=-1.
 Damping current iteration by 5.00D-01
 RMSDP=3.07D-03 MaxDP=5.16D-01              OVMax= 9.27D-01

 Cycle   2  Pass 1  IDiag  1:
 RMSU=  1.52D-03    CP:  9.83D-01
 E= -4573.58141693859     Delta-E=        4.105904420347 Rises=F Damp=T
 DIIS: error= 2.23D-02 at cycle   2 NSaved=   2.
 NSaved= 2 IEnMin= 1 EnMin= -4577.68732135894     IErMin= 2 ErrMin= 2.23D-02
 ErrMax= 2.23D-02  0.00D+00 EMaxC= 1.00D-01 BMatC= 1.84D+00 BMatP= 2.42D+00
 IDIUse=3 WtCom= 7.77D-01 WtEn= 2.23D-01
 Coeff-Com:  0.439D+00 0.561D+00
 Coeff-En:   0.836D+00 0.164D+00
 Coeff:      0.528D+00 0.472D+00
 Gap=    -0.528 Goal=   None    Shift=    0.000
 RMSDP=1.89D-03 MaxDP=2.85D-01 DE= 4.11D+00 OVMax= 9.65D-01

 Cycle   3  Pass 1  IDiag  1:
 RMSU=  1.69D-03    CP:  9.81D-01  4.43D-01
 E= -4575.46497128552     Delta-E=       -1.883554346936 Rises=F Damp=F
 DIIS: error= 2.45D-02 at cycle   3 NSaved=   3.
 NSaved= 3 IEnMin= 1 EnMin= -4577.68732135894     IErMin= 2 ErrMin= 2.23D-02
 ErrMax= 2.45D-02  0.00D+00 EMaxC= 1.00D-01 BMatC= 2.73D+00 BMatP= 1.84D+00
 IDIUse=2 WtCom= 0.00D+00 WtEn= 1.00D+00
 EnCoef did     4 forward-backward iterations
 Coeff-En:   0.593D+00 0.193D+00 0.214D+00
 Coeff:      0.593D+00 0.193D+00 0.214D+00
 Gap=     0.014 Goal=   None    Shift=    0.000
 RMSDP=1.54D-03 MaxDP=3.19D-01 DE=-1.88D+00 OVMax= 6.34D-01

 Cycle   4  Pass 1  IDiag  1:
 RMSU=  1.04D-03    CP:  9.86D-01  5.93D-01  3.43D-01
 E= -4578.95172122600     Delta-E=       -3.486749940472 Rises=F Damp=F
 DIIS: error= 2.56D-02 at cycle   4 NSaved=   4.
 NSaved= 4 IEnMin= 4 EnMin= -4578.95172122600     IErMin= 2 ErrMin= 2.23D-02
 ErrMax= 2.56D-02  0.00D+00 EMaxC= 1.00D-01 BMatC= 5.09D-01 BMatP= 1.84D+00
 IDIUse=3 WtCom= 7.44D-01 WtEn= 2.56D-01
 Coeff-Com:  0.233D+00 0.140D+00 0.124D+00 0.504D+00
 Coeff-En:   0.101D+00 0.000D+00 0.000D+00 0.899D+00
 Coeff:      0.199D+00 0.104D+00 0.920D-01 0.605D+00
 Gap=     0.172 Goal=   None    Shift=    0.000
 RMSDP=6.28D-04 MaxDP=1.08D-01 DE=-3.49D+00 OVMax= 1.41D-01

 Cycle   5  Pass 1  IDiag  1:
 RMSU=  5.03D-04    CP:  9.87D-01  4.37D-01  2.57D-01  7.57D-01
 E= -4579.23548624898     Delta-E=       -0.283765022981 Rises=F Damp=F
 DIIS: error= 1.45D-02 at cycle   5 NSaved=   5.
 NSaved= 5 IEnMin= 5 EnMin= -4579.23548624898     IErMin= 5 ErrMin= 1.45D-02
 ErrMax= 1.45D-02  0.00D+00 EMaxC= 1.00D-01 BMatC= 1.70D-01 BMatP= 5.09D-01
 IDIUse=3 WtCom= 8.55D-01 WtEn= 1.45D-01
 Coeff-Com:  0.221D-01 0.435D-01 0.102D-01 0.336D+00 0.588D+00
 Coeff-En:   0.000D+00 0.000D+00 0.000D+00 0.240D+00 0.760D+00
 Coeff:      0.189D-01 0.372D-01 0.876D-02 0.322D+00 0.613D+00
 Gap=     0.169 Goal=   None    Shift=    0.000
 RMSDP=2.63D-04 MaxDP=3.35D-02 DE=-2.84D-01 OVMax= 4.94D-02

 Cycle   6  Pass 1  IDiag  1:
 RMSU=  1.77D-04    CP:  9.87D-01  4.93D-01  2.66D-01  8.62D-01  7.31D-01
 E= -4579.35973872680     Delta-E=       -0.124252477824 Rises=F Damp=F
 DIIS: error= 2.19D-03 at cycle   6 NSaved=   6.
 NSaved= 6 IEnMin= 6 EnMin= -4579.35973872680     IErMin= 6 ErrMin= 2.19D-03
 ErrMax= 2.19D-03  0.00D+00 EMaxC= 1.00D-01 BMatC= 1.33D-02 BMatP= 1.70D-01
 IDIUse=3 WtCom= 9.78D-01 WtEn= 2.19D-02
 Coeff-Com: -0.140D-01 0.201D-01-0.432D-02 0.115D+00 0.324D+00 0.560D+00
 Coeff-En:   0.000D+00 0.000D+00 0.000D+00 0.000D+00 0.000D+00 0.100D+01
 Coeff:     -0.136D-01 0.196D-01-0.423D-02 0.112D+00 0.317D+00 0.569D+00
 Gap=     0.148 Goal=   None    Shift=    0.000
 RMSDP=9.21D-05 MaxDP=1.29D-02 DE=-1.24D-01 OVMax= 1.38D-02

 Cycle   7  Pass 1  IDiag  1:
 RMSU=  6.11D-05    CP:  9.86D-01  4.98D-01  2.72D-01  8.72D-01  7.90D-01
                    CP:  6.66D-01
 E= -4579.36909529043     Delta-E=       -0.009356563631 Rises=F Damp=F
 DIIS: error= 9.77D-04 at cycle   7 NSaved=   7.
 NSaved= 7 IEnMin= 7 EnMin= -4579.36909529043     IErMin= 7 ErrMin= 9.77D-04
 ErrMax= 9.77D-04  0.00D+00 EMaxC= 1.00D-01 BMatC= 1.56D-03 BMatP= 1.33D-02
 IDIUse=3 WtCom= 9.90D-01 WtEn= 9.77D-03
 Coeff-Com: -0.960D-02 0.118D-01-0.825D-02 0.252D-01 0.927D-01 0.261D+00
 Coeff-Com:  0.628D+00
 Coeff-En:   0.000D+00 0.000D+00 0.000D+00 0.000D+00 0.000D+00 0.000D+00
 Coeff-En:   0.100D+01
 Coeff:     -0.950D-02 0.117D-01-0.817D-02 0.250D-01 0.918D-01 0.258D+00
 Coeff:      0.631D+00
 Gap=     0.148 Goal=   None    Shift=    0.000
 RMSDP=2.91D-05 MaxDP=3.49D-03 DE=-9.36D-03 OVMax= 8.17D-03

 Cycle   8  Pass 1  IDiag  1:
 RMSU=  2.37D-05    CP:  9.86D-01  5.00D-01  2.69D-01  8.79D-01  7.99D-01
                    CP:  7.35D-01  9.08D-01
 E= -4579.37025799296     Delta-E=       -0.001162702531 Rises=F Damp=F
 DIIS: error= 6.81D-04 at cycle   8 NSaved=   8.
 NSaved= 8 IEnMin= 8 EnMin= -4579.37025799296     IErMin= 8 ErrMin= 6.81D-04
 ErrMax= 6.81D-04  0.00D+00 EMaxC= 1.00D-01 BMatC= 5.34D-04 BMatP= 1.56D-03
 IDIUse=3 WtCom= 9.93D-01 WtEn= 6.81D-03
 Coeff-Com: -0.329D-02 0.616D-02-0.714D-02-0.802D-02-0.189D-01 0.275D-01
 Coeff-Com:  0.394D+00 0.610D+00
 Coeff-En:   0.000D+00 0.000D+00 0.000D+00 0.000D+00 0.000D+00 0.000D+00
 Coeff-En:   0.000D+00 0.100D+01
 Coeff:     -0.327D-02 0.612D-02-0.709D-02-0.797D-02-0.188D-01 0.273D-01
 Coeff:      0.391D+00 0.613D+00
 Gap=     0.148 Goal=   None    Shift=    0.000
 RMSDP=1.74D-05 MaxDP=1.94D-03 DE=-1.16D-03 OVMax= 4.35D-03

 Cycle   9  Pass 1  IDiag  1:
 RMSU=  1.30D-05    CP:  9.86D-01  5.01D-01  2.67D-01  8.84D-01  8.02D-01
                    CP:  7.51D-01  1.05D+00  8.64D-01
 E= -4579.37072586813     Delta-E=       -0.000467875165 Rises=F Damp=F
 DIIS: error= 2.85D-04 at cycle   9 NSaved=   9.
 NSaved= 9 IEnMin= 9 EnMin= -4579.37072586813     IErMin= 9 ErrMin= 2.85D-04
 ErrMax= 2.85D-04  0.00D+00 EMaxC= 1.00D-01 BMatC= 1.38D-04 BMatP= 5.34D-04
 IDIUse=3 WtCom= 9.97D-01 WtEn= 2.85D-03
 Coeff-Com:  0.406D-03 0.180D-02-0.433D-02-0.802D-02-0.353D-01-0.573D-01
 Coeff-Com:  0.461D-01 0.311D+00 0.745D+00
 Coeff-En:   0.000D+00 0.000D+00 0.000D+00 0.000D+00 0.000D+00 0.000D+00
 Coeff-En:   0.000D+00 0.000D+00 0.100D+01
 Coeff:      0.405D-03 0.179D-02-0.431D-02-0.799D-02-0.352D-01-0.572D-01
 Coeff:      0.460D-01 0.310D+00 0.746D+00
 Gap=     0.147 Goal=   None    Shift=    0.000
 RMSDP=1.19D-05 MaxDP=9.66D-04 DE=-4.68D-04 OVMax= 2.61D-03

 Cycle  10  Pass 1  IDiag  1:
 RMSU=  6.92D-06    CP:  9.86D-01  5.02D-01  2.65D-01  8.88D-01  8.01D-01
                    CP:  7.57D-01  1.14D+00  1.08D+00  1.13D+00
 E= -4579.37088519755     Delta-E=       -0.000159329426 Rises=F Damp=F
 DIIS: error= 1.10D-04 at cycle  10 NSaved=  10.
 NSaved=10 IEnMin=10 EnMin= -4579.37088519755     IErMin=10 ErrMin= 1.10D-04
 ErrMax= 1.10D-04  0.00D+00 EMaxC= 1.00D-01 BMatC= 2.51D-05 BMatP= 1.38D-04
 IDIUse=3 WtCom= 9.99D-01 WtEn= 1.10D-03
 Coeff-Com:  0.862D-03-0.232D-03-0.149D-02 0.118D-02-0.887D-02-0.300D-01
 Coeff-Com: -0.696D-01-0.315D-01 0.361D+00 0.778D+00
 Coeff-En:   0.000D+00 0.000D+00 0.000D+00 0.000D+00 0.000D+00 0.000D+00
 Coeff-En:   0.000D+00 0.000D+00 0.000D+00 0.100D+01
 Coeff:      0.861D-03-0.232D-03-0.149D-02 0.118D-02-0.886D-02-0.300D-01
 Coeff:     -0.696D-01-0.315D-01 0.361D+00 0.779D+00
 Gap=     0.146 Goal=   None    Shift=    0.000
 RMSDP=6.31D-06 MaxDP=5.22D-04 DE=-1.59D-04 OVMax= 1.38D-03

 Cycle  11  Pass 1  IDiag  1:
 RMSU=  3.52D-06    CP:  9.86D-01  5.02D-01  2.64D-01  8.91D-01  7.99D-01
                    CP:  7.58D-01  1.16D+00  1.15D+00  1.38D+00  1.07D+00
 E= -4579.37091514504     Delta-E=       -0.000029947489 Rises=F Damp=F
 DIIS: error= 2.91D-05 at cycle  11 NSaved=  11.
 NSaved=11 IEnMin=11 EnMin= -4579.37091514504     IErMin=11 ErrMin= 2.91D-05
 ErrMax= 2.91D-05  0.00D+00 EMaxC= 1.00D-01 BMatC= 3.22D-06 BMatP= 2.51D-05
 IDIUse=1 WtCom= 1.00D+00 WtEn= 0.00D+00
 Coeff-Com:  0.256D-03-0.385D-03-0.369D-04 0.297D-02 0.408D-02 0.718D-03
 Coeff-Com: -0.258D-01-0.709D-01 0.166D-01 0.382D+00 0.690D+00
 Coeff:      0.256D-03-0.385D-03-0.369D-04 0.297D-02 0.408D-02 0.718D-03
 Coeff:     -0.258D-01-0.709D-01 0.166D-01 0.382D+00 0.690D+00
 Gap=     0.146 Goal=   None    Shift=    0.000
 RMSDP=2.15D-06 MaxDP=1.59D-04 DE=-2.99D-05 OVMax= 3.76D-04

 Cycle  12  Pass 1  IDiag  1:
 RMSU=  1.33D-06    CP:  9.86D-01  5.02D-01  2.64D-01  8.91D-01  7.99D-01
                    CP:  7.55D-01  1.17D+00  1.15D+00  1.44D+00  1.25D+00
                    CP:  9.09D-01
 E= -4579.37091779240     Delta-E=       -0.000002647354 Rises=F Damp=F
 DIIS: error= 1.64D-05 at cycle  12 NSaved=  12.
 NSaved=12 IEnMin=12 EnMin= -4579.37091779240     IErMin=12 ErrMin= 1.64D-05
 ErrMax= 1.64D-05  0.00D+00 EMaxC= 1.00D-01 BMatC= 9.00D-07 BMatP= 3.22D-06
 IDIUse=1 WtCom= 1.00D+00 WtEn= 0.00D+00
 Coeff-Com:  0.735D-04-0.220D-03 0.134D-03 0.112D-02 0.224D-02 0.264D-02
 Coeff-Com: -0.948D-03-0.216D-01-0.136D-01 0.107D+00 0.305D+00 0.618D+00
 Coeff:      0.735D-04-0.220D-03 0.134D-03 0.112D-02 0.224D-02 0.264D-02
 Coeff:     -0.948D-03-0.216D-01-0.136D-01 0.107D+00 0.305D+00 0.618D+00
 Gap=     0.146 Goal=   None    Shift=    0.000
 RMSDP=7.98D-07 MaxDP=9.75D-05 DE=-2.65D-06 OVMax= 1.64D-04

 Cycle  13  Pass 1  IDiag  1:
 RMSU=  6.70D-07    CP:  9.86D-01  5.02D-01  2.64D-01  8.91D-01  7.98D-01
                    CP:  7.55D-01  1.16D+00  1.15D+00  1.43D+00  1.24D+00
                    CP:  9.40D-01  9.75D-01
 E= -4579.37091843299     Delta-E=       -0.000000640597 Rises=F Damp=F
 DIIS: error= 1.27D-05 at cycle  13 NSaved=  13.
 NSaved=13 IEnMin=13 EnMin= -4579.37091843299     IErMin=13 ErrMin= 1.27D-05
 ErrMax= 1.27D-05  0.00D+00 EMaxC= 1.00D-01 BMatC= 3.64D-07 BMatP= 9.00D-07
 IDIUse=1 WtCom= 1.00D+00 WtEn= 0.00D+00
 Coeff-Com:  0.207D-04-0.799D-04 0.106D-03-0.881D-04 0.765D-04 0.709D-03
 Coeff-Com:  0.558D-02 0.597D-02 0.849D-03-0.405D-02 0.253D-01 0.368D+00
 Coeff-Com:  0.598D+00
 Coeff:      0.207D-04-0.799D-04 0.106D-03-0.881D-04 0.765D-04 0.709D-03
 Coeff:      0.558D-02 0.597D-02 0.849D-03-0.405D-02 0.253D-01 0.368D+00
 Coeff:      0.598D+00
 Gap=     0.146 Goal=   None    Shift=    0.000
 RMSDP=5.23D-07 MaxDP=5.13D-05 DE=-6.41D-07 OVMax= 9.73D-05

 Cycle  14  Pass 1  IDiag  1:
 RMSU=  3.46D-07    CP:  9.86D-01  5.02D-01  2.64D-01  8.91D-01  7.99D-01
                    CP:  7.54D-01  1.16D+00  1.15D+00  1.43D+00  1.23D+00
                    CP:  9.37D-01  1.11D+00  9.76D-01
 E= -4579.37091873373     Delta-E=       -0.000000300741 Rises=F Damp=F
 DIIS: error= 4.30D-06 at cycle  14 NSaved=  14.
 NSaved=14 IEnMin=14 EnMin= -4579.37091873373     IErMin=14 ErrMin= 4.30D-06
 ErrMax= 4.30D-06  0.00D+00 EMaxC= 1.00D-01 BMatC= 6.37D-08 BMatP= 3.64D-07
 IDIUse=1 WtCom= 1.00D+00 WtEn= 0.00D+00
 Coeff-Com:  0.385D-05-0.124D-06 0.515D-04-0.365D-03-0.590D-03-0.547D-03
 Coeff-Com:  0.241D-02 0.821D-02 0.877D-02-0.165D-01-0.567D-01 0.205D-01
 Coeff-Com:  0.252D+00 0.783D+00
 Coeff:      0.385D-05-0.124D-06 0.515D-04-0.365D-03-0.590D-03-0.547D-03
 Coeff:      0.241D-02 0.821D-02 0.877D-02-0.165D-01-0.567D-01 0.205D-01
 Coeff:      0.252D+00 0.783D+00
 Gap=     0.146 Goal=   None    Shift=    0.000
 RMSDP=3.29D-07 MaxDP=2.62D-05 DE=-3.01D-07 OVMax= 3.84D-05

 Cycle  15  Pass 1  IDiag  1:
 RMSU=  1.55D-07    CP:  9.86D-01  5.02D-01  2.64D-01  8.90D-01  7.99D-01
                    CP:  7.54D-01  1.16D+00  1.15D+00  1.42D+00  1.23D+00
                    CP:  9.28D-01  1.17D+00  1.19D+00  1.26D+00
 E= -4579.37091880180     Delta-E=       -0.000000068070 Rises=F Damp=F
 DIIS: error= 2.32D-06 at cycle  15 NSaved=  15.
 NSaved=15 IEnMin=15 EnMin= -4579.37091880180     IErMin=15 ErrMin= 2.32D-06
 ErrMax= 2.32D-06  0.00D+00 EMaxC= 1.00D-01 BMatC= 8.54D-09 BMatP= 6.37D-08
 IDIUse=1 WtCom= 1.00D+00 WtEn= 0.00D+00
 Coeff-Com:  0.225D-05 0.180D-05 0.127D-04-0.135D-03-0.238D-03-0.454D-03
 Coeff-Com: -0.104D-02 0.958D-03 0.423D-02-0.107D-03-0.234D-01-0.761D-01
 Coeff-Com: -0.423D-01 0.396D+00 0.743D+00
 Coeff:      0.225D-05 0.180D-05 0.127D-04-0.135D-03-0.238D-03-0.454D-03
 Coeff:     -0.104D-02 0.958D-03 0.423D-02-0.107D-03-0.234D-01-0.761D-01
 Coeff:     -0.423D-01 0.396D+00 0.743D+00
 Gap=     0.146 Goal=   None    Shift=    0.000
 RMSDP=1.38D-07 MaxDP=1.10D-05 DE=-6.81D-08 OVMax= 2.59D-05

 Cycle  16  Pass 1  IDiag  1:
 RMSU=  7.39D-08    CP:  9.86D-01  5.02D-01  2.64D-01  8.90D-01  7.99D-01
                    CP:  7.54D-01  1.16D+00  1.15D+00  1.42D+00  1.23D+00
                    CP:  9.27D-01  1.19D+00  1.27D+00  1.48D+00  9.85D-01
 E= -4579.37091881377     Delta-E=       -0.000000011965 Rises=F Damp=F
 DIIS: error= 1.07D-06 at cycle  16 NSaved=  16.
 NSaved=16 IEnMin=16 EnMin= -4579.37091881377     IErMin=16 ErrMin= 1.07D-06
 ErrMax= 1.07D-06  0.00D+00 EMaxC= 1.00D-01 BMatC= 2.25D-09 BMatP= 8.54D-09
 IDIUse=1 WtCom= 1.00D+00 WtEn= 0.00D+00
 Coeff-Com:  0.234D-05-0.270D-05 0.191D-05-0.124D-04-0.246D-04-0.168D-03
 Coeff-Com: -0.118D-02-0.115D-02 0.618D-03 0.328D-02-0.332D-02-0.495D-01
 Coeff-Com: -0.732D-01 0.932D-01 0.446D+00 0.585D+00
 Coeff:      0.234D-05-0.270D-05 0.191D-05-0.124D-04-0.246D-04-0.168D-03
 Coeff:     -0.118D-02-0.115D-02 0.618D-03 0.328D-02-0.332D-02-0.495D-01
 Coeff:     -0.732D-01 0.932D-01 0.446D+00 0.585D+00
 Gap=     0.146 Goal=   None    Shift=    0.000
 RMSDP=5.40D-08 MaxDP=5.45D-06 DE=-1.20D-08 OVMax= 1.29D-05

 Cycle  17  Pass 1  IDiag  1:
 RMSU=  3.39D-08    CP:  9.86D-01  5.02D-01  2.64D-01  8.90D-01  7.99D-01
                    CP:  7.54D-01  1.16D+00  1.15D+00  1.42D+00  1.23D+00
                    CP:  9.27D-01  1.20D+00  1.28D+00  1.56D+00  1.14D+00
                    CP:  9.07D-01
 E= -4579.37091881725     Delta-E=       -0.000000003482 Rises=F Damp=F
 DIIS: error= 3.62D-07 at cycle  17 NSaved=  17.
 NSaved=17 IEnMin=17 EnMin= -4579.37091881725     IErMin=17 ErrMin= 3.62D-07
 ErrMax= 3.62D-07  0.00D+00 EMaxC= 1.00D-01 BMatC= 2.42D-10 BMatP= 2.25D-09
 IDIUse=1 WtCom= 1.00D+00 WtEn= 0.00D+00
 Coeff-Com:  0.155D-05-0.256D-05-0.427D-06 0.189D-04 0.302D-04 0.209D-05
 Coeff-Com: -0.316D-03-0.690D-03-0.529D-03 0.166D-02 0.274D-02-0.841D-02
 Coeff-Com: -0.248D-01-0.286D-01 0.656D-01 0.265D+00 0.729D+00
 Coeff:      0.155D-05-0.256D-05-0.427D-06 0.189D-04 0.302D-04 0.209D-05
 Coeff:     -0.316D-03-0.690D-03-0.529D-03 0.166D-02 0.274D-02-0.841D-02
 Coeff:     -0.248D-01-0.286D-01 0.656D-01 0.265D+00 0.729D+00
 Gap=     0.146 Goal=   None    Shift=    0.000
 RMSDP=2.17D-08 MaxDP=1.74D-06 DE=-3.48D-09 OVMax= 4.35D-06

 Cycle  18  Pass 1  IDiag  1:
 RMSU=  1.39D-08    CP:  9.86D-01  5.02D-01  2.64D-01  8.90D-01  7.99D-01
                    CP:  7.54D-01  1.16D+00  1.15D+00  1.42D+00  1.23D+00
                    CP:  9.27D-01  1.20D+00  1.29D+00  1.58D+00  1.18D+00
                    CP:  1.06D+00  9.99D-01
 E= -4579.37091881700     Delta-E=        0.000000000251 Rises=F Damp=F
 DIIS: error= 2.02D-07 at cycle  18 NSaved=  18.
 NSaved=18 IEnMin=17 EnMin= -4579.37091881725     IErMin=18 ErrMin= 2.02D-07
 ErrMax= 2.02D-07  0.00D+00 EMaxC= 1.00D-01 BMatC= 7.93D-11 BMatP= 2.42D-10
 IDIUse=1 WtCom= 1.00D+00 WtEn= 0.00D+00
 Coeff-Com:  0.103D-05-0.164D-05-0.333D-06 0.111D-04 0.160D-04 0.240D-04
 Coeff-Com:  0.419D-04-0.127D-03-0.328D-03 0.169D-03 0.136D-02 0.237D-02
 Coeff-Com: -0.162D-02-0.252D-01-0.315D-01 0.450D-01 0.404D+00 0.606D+00
 Coeff:      0.103D-05-0.164D-05-0.333D-06 0.111D-04 0.160D-04 0.240D-04
 Coeff:      0.419D-04-0.127D-03-0.328D-03 0.169D-03 0.136D-02 0.237D-02
 Coeff:     -0.162D-02-0.252D-01-0.315D-01 0.450D-01 0.404D+00 0.606D+00
 Gap=     0.146 Goal=   None    Shift=    0.000
 RMSDP=8.97D-09 MaxDP=8.65D-07 DE= 2.51D-10 OVMax= 1.83D-06

 SCF Done:  E(RCAM-B3LYP) =  -4579.37091882     A.U. after   18 cycles
            NFock= 18  Conv=0.90D-08     -V/T= 2.0077
 KE= 4.544570222467D+03 PE=-4.522009370350D+04 EE= 1.893972320260D+04
 Leave Link  502 at Fri Jun  9 10:10:15 2023, MaxMem=  8589934592 cpu:           21066.2 elap:             397.2
 DoSCS=F DFT=T ScalE2(SS,OS)=  1.000000  1.000000
 ExpMin= 4.05D-02 ExpMax= 5.48D+03 ExpMxC= 8.25D+02 IAcc=3 IRadAn=         5 AccDes= 0.00D+00
 HarFok:  IExCor=  205 AccDes= 0.00D+00 IRadAn=         5 IDoV=-2 UseB2=F ITyADJ=14
 ICtDFT= 12500011 ScaDFX=  1.000000  1.000000  1.000000  1.000000
 Defaulting to unpruned grid for atomic number  48.
 GSVD:  LWork=       -7728 too small for GESVD, short by       36540 words or       36540 for optimal perf.
 Largest valence mixing into a core orbital is  5.05D-05
 Largest core mixing into a valence orbital is  2.53D-05
 Range of M.O.s used for correlation:    85  1317
 NBasis=  1317 NAE=   311 NBE=   311 NFC=    84 NFV=     0
 NROrb=   1233 NOA=   227 NOB=   227 NVA=  1006 NVB=  1006
 Leave Link  801 at Fri Jun  9 10:10:16 2023, MaxMem=  8589934592 cpu:              35.5 elap:               0.9
 RHF ground state
 Two-electron integrals replicated using symmetry.
 MDV=  8589934592 DFT=T DoStab=F Mixed=T DoRPA=T DoScal=F NonHer=T
 Making orbital integer symmetry assigments:
 Orbital symmetries:
       Occupied  (A) (A) (A) (A) (A) (A) (A) (A) (A) (A) (A) (A)
                 (A) (A) (A) (A) (A) (A) (A) (A) (A) (A) (A) (A)
                 (A) (A) (A) (A) (A) (A) (A) (A) (A) (A) (A) (A)
                 (A) (A) (A) (A) (A) (A) (A) (A) (A) (A) (A) (A)
                 (A) (A) (A) (A) (A) (A) (A) (A) (A) (A) (A) (A)
                 (A) (A) (A) (A) (A) (A) (A) (A) (A) (A) (A) (A)
                 (A) (A) (A) (A) (A) (A) (A) (A) (A) (A) (A) (A)
                 (A) (A) (A) (A) (A) (A) (A) (A) (A) (A) (A) (A)
                 (A) (A) (A) (A) (A) (A) (A) (A) (A) (A) (A) (A)
                 (A) (A) (A) (A) (A) (A) (A) (A) (A) (A) (A) (A)
                 (A) (A) (A) (A) (A) (A) (A) (A) (A) (A) (A) (A)
                 (A) (A) (A) (A) (A) (A) (A) (A) (A) (A) (A) (A)
                 (A) (A) (A) (A) (A) (A) (A) (A) (A) (A) (A) (A)
                 (A) (A) (A) (A) (A) (A) (A) (A) (A) (A) (A) (A)
                 (A) (A) (A) (A) (A) (A) (A) (A) (A) (A) (A) (A)
                 (A) (A) (A) (A) (A) (A) (A) (A) (A) (A) (A) (A)
                 (A) (A) (A) (A) (A) (A) (A) (A) (A) (A) (A) (A)
                 (A) (A) (A) (A) (A) (A) (A) (A) (A) (A) (A) (A)
                 (A) (A) (A) (A) (A) (A) (A) (A) (A) (A) (A) (A)
                 (A) (A) (A) (A) (A) (A) (A) (A) (A) (A) (A) (A)
                 (A) (A) (A) (A) (A) (A) (A) (A) (A) (A) (A) (A)
                 (A) (A) (A) (A) (A) (A) (A) (A) (A) (A) (A) (A)
                 (A) (A) (A) (A) (A) (A) (A) (A) (A) (A) (A) (A)
                 (A) (A) (A) (A) (A) (A) (A) (A) (A) (A) (A) (A)
                 (A) (A) (A) (A) (A) (A) (A) (A) (A) (A) (A) (A)
                 (A) (A) (A) (A) (A) (A) (A) (A) (A) (A) (A)
       Virtual   (A) (A) (A) (A) (A) (A) (A) (A) (A) (A) (A) (A)
                 (A) (A) (A) (A) (A) (A) (A) (A) (A) (A) (A) (A)
                 (A) (A) (A) (A) (A) (A) (A) (A) (A) (A) (A) (A)
                 (A) (A) (A) (A) (A) (A) (A) (A) (A) (A) (A) (A)
                 (A) (A) (A) (A) (A) (A) (A) (A) (A) (A) (A) (A)
                 (A) (A) (A) (A) (A) (A) (A) (A) (A) (A) (A) (A)
                 (A) (A) (A) (A) (A) (A) (A) (A) (A) (A) (A) (A)
                 (A) (A) (A) (A) (A) (A) (A) (A) (A) (A) (A) (A)
                 (A) (A) (A) (A) (A) (A) (A) (A) (A) (A) (A) (A)
                 (A) (A) (A) (A) (A) (A) (A) (A) (A) (A) (A) (A)
                 (A) (A) (A) (A) (A) (A) (A) (A) (A) (A) (A) (A)
                 (A) (A) (A) (A) (A) (A) (A) (A) (A) (A) (A) (A)
                 (A) (A) (A) (A) (A) (A) (A) (A) (A) (A) (A) (A)
                 (A) (A) (A) (A) (A) (A) (A) (A) (A) (A) (A) (A)
                 (A) (A) (A) (A) (A) (A) (A) (A) (A) (A) (A) (A)
                 (A) (A) (A) (A) (A) (A) (A) (A) (A) (A) (A) (A)
                 (A) (A) (A) (A) (A) (A) (A) (A) (A) (A) (A) (A)
                 (A) (A) (A) (A) (A) (A) (A) (A) (A) (A) (A) (A)
                 (A) (A) (A) (A) (A) (A) (A) (A) (A) (A) (A) (A)
                 (A) (A) (A) (A) (A) (A) (A) (A) (A) (A) (A) (A)
                 (A) (A) (A) (A) (A) (A) (A) (A) (A) (A) (A) (A)
                 (A) (A) (A) (A) (A) (A) (A) (A) (A) (A) (A) (A)
                 (A) (A) (A) (A) (A) (A) (A) (A) (A) (A) (A) (A)
                 (A) (A) (A) (A) (A) (A) (A) (A) (A) (A) (A) (A)
                 (A) (A) (A) (A) (A) (A) (A) (A) (A) (A) (A) (A)
                 (A) (A) (A) (A) (A) (A) (A) (A) (A) (A) (A) (A)
                 (A) (A) (A) (A) (A) (A) (A) (A) (A) (A) (A) (A)
                 (A) (A) (A) (A) (A) (A) (A) (A) (A) (A) (A) (A)
                 (A) (A) (A) (A) (A) (A) (A) (A) (A) (A) (A) (A)
                 (A) (A) (A) (A) (A) (A) (A) (A) (A) (A) (A) (A)
                 (A) (A) (A) (A) (A) (A) (A) (A) (A) (A) (A) (A)
                 (A) (A) (A) (A) (A) (A) (A) (A) (A) (A) (A) (A)
                 (A) (A) (A) (A) (A) (A) (A) (A) (A) (A) (A) (A)
                 (A) (A) (A) (A) (A) (A) (A) (A) (A) (A) (A) (A)
                 (A) (A) (A) (A) (A) (A) (A) (A) (A) (A) (A) (A)
                 (A) (A) (A) (A) (A) (A) (A) (A) (A) (A) (A) (A)
                 (A) (A) (A) (A) (A) (A) (A) (A) (A) (A) (A) (A)
                 (A) (A) (A) (A) (A) (A) (A) (A) (A) (A) (A) (A)
                 (A) (A) (A) (A) (A) (A) (A) (A) (A) (A) (A) (A)
                 (A) (A) (A) (A) (A) (A) (A) (A) (A) (A) (A) (A)
                 (A) (A) (A) (A) (A) (A) (A) (A) (A) (A) (A) (A)
                 (A) (A) (A) (A) (A) (A) (A) (A) (A) (A) (A) (A)
                 (A) (A) (A) (A) (A) (A) (A) (A) (A) (A) (A) (A)
                 (A) (A) (A) (A) (A) (A) (A) (A) (A) (A) (A) (A)
                 (A) (A) (A) (A) (A) (A) (A) (A) (A) (A) (A) (A)
                 (A) (A) (A) (A) (A) (A) (A) (A) (A) (A) (A) (A)
                 (A) (A) (A) (A) (A) (A) (A) (A) (A) (A) (A) (A)
                 (A) (A) (A) (A) (A) (A) (A) (A) (A) (A) (A) (A)
                 (A) (A) (A) (A) (A) (A) (A) (A) (A) (A) (A) (A)
                 (A) (A) (A) (A) (A) (A) (A) (A) (A) (A) (A) (A)
                 (A) (A) (A) (A) (A) (A) (A) (A) (A) (A) (A) (A)
                 (A) (A) (A) (A) (A) (A) (A) (A) (A) (A) (A) (A)
                 (A) (A) (A) (A) (A) (A) (A) (A) (A) (A) (A) (A)
                 (A) (A) (A) (A) (A) (A) (A) (A) (A) (A) (A) (A)
                 (A) (A) (A) (A) (A) (A) (A) (A) (A) (A) (A) (A)
                 (A) (A) (A) (A) (A) (A) (A) (A) (A) (A) (A) (A)
                 (A) (A) (A) (A) (A) (A) (A) (A) (A) (A) (A) (A)
                 (A) (A) (A) (A) (A) (A) (A) (A) (A) (A) (A) (A)
                 (A) (A) (A) (A) (A) (A) (A) (A) (A) (A) (A) (A)
                 (A) (A) (A) (A) (A) (A) (A) (A) (A) (A) (A) (A)
                 (A) (A) (A) (A) (A) (A) (A) (A) (A) (A) (A) (A)
                 (A) (A) (A) (A) (A) (A) (A) (A) (A) (A) (A) (A)
                 (A) (A) (A) (A) (A) (A) (A) (A) (A) (A) (A) (A)
                 (A) (A) (A) (A) (A) (A) (A) (A) (A) (A) (A) (A)
                 (A) (A) (A) (A) (A) (A) (A) (A) (A) (A) (A) (A)
                 (A) (A) (A) (A) (A) (A) (A) (A) (A) (A) (A) (A)
                 (A) (A) (A) (A) (A) (A) (A) (A) (A) (A) (A) (A)
                 (A) (A) (A) (A) (A) (A) (A) (A) (A) (A) (A) (A)
                 (A) (A) (A) (A) (A) (A) (A) (A) (A) (A) (A) (A)
                 (A) (A) (A) (A) (A) (A) (A) (A) (A) (A) (A) (A)
                 (A) (A) (A) (A) (A) (A) (A) (A) (A) (A) (A) (A)
                 (A) (A) (A) (A) (A) (A) (A) (A) (A) (A) (A) (A)
                 (A) (A) (A) (A) (A) (A) (A) (A) (A) (A) (A) (A)
                 (A) (A) (A) (A) (A) (A) (A) (A) (A) (A) (A) (A)
                 (A) (A) (A) (A) (A) (A) (A) (A) (A) (A) (A) (A)
                 (A) (A) (A) (A) (A) (A) (A) (A) (A) (A) (A) (A)
                 (A) (A) (A) (A) (A) (A) (A) (A) (A) (A) (A) (A)
                 (A) (A) (A) (A) (A) (A) (A) (A) (A) (A) (A) (A)
                 (A) (A) (A) (A) (A) (A) (A) (A) (A) (A) (A) (A)
                 (A) (A) (A) (A) (A) (A) (A) (A) (A) (A) (A) (A)
                 (A) (A) (A) (A) (A) (A) (A) (A) (A) (A) (A) (A)
                 (A) (A) (A) (A) (A) (A) (A) (A) (A) (A) (A) (A)
                 (A) (A) (A) (A) (A) (A) (A) (A) (A) (A) (A) (A)
                 (A) (A) (A) (A) (A) (A) (A) (A) (A) (A)
   800 initial guesses have been made.
 Convergence on wavefunction:    0.001000000000000
 Davidson Disk Diagonalization:  ConvIn= 1.00D-03 SkipCon=T Conv= 1.00D-03.
 Max sub-space: 12000 roots to seek:   800 dimension of matrix:       456724
 Iteration     1 Dimension   800 NMult     0 NNew    800
 CISAX will form    37 AO SS matrices at one time.
 NMat=    37 NSing=    37 JSym2X= 0.
 FoFJK:  IHMeth= 1 ICntrl=       0 DoSepK=T KAlg= 0 I1Cent=           0 FoldK=F
 IRaf=         1 NMat=      74 IRICut=       1 DoRegI=T DoRafI=F ISym2E= 0 IDoP0=3 IntGTp=3.
 FoFCou: FMM=T IPFlag=           0 FMFlag=      100000 FMFlg1=        2001
         NFxFlg=           0 DoJE=F BraDBF=F KetDBF=F FulRan=T
         wScrn=  0.000000 ICntrl=       500 IOpCl=  0 I1Cent=           0 NGrid=           0
         NMat0=   37 NMatS0=     37 NMatT0=    0 NMatD0=   37 NMtDS0=    0 NMtDT0=    0
 Symmetry not used in FoFCou.
 FMM levels:  10  Number of levels for PrismC:   9
 Defaulting to unpruned grid for atomic number  48.
 Defaulting to unpruned grid for atomic number  48.
 Defaulting to unpruned grid for atomic number  48.
 Defaulting to unpruned grid for atomic number  48.
 Defaulting to unpruned grid for atomic number  48.
 Defaulting to unpruned grid for atomic number  48.
 Defaulting to unpruned grid for atomic number  48.
 Defaulting to unpruned grid for atomic number  48.
 Defaulting to unpruned grid for atomic number  48.
 Defaulting to unpruned grid for atomic number  48.
[...]
 Alpha virt. eigenvalues --    1.29856   1.30052   1.30299   1.30449   1.30679
 Alpha virt. eigenvalues --    1.30953   1.31155   1.31627   1.32103   1.32322
 Alpha virt. eigenvalues --    1.32442   1.32698   1.33004   1.33220   1.33397
 Alpha virt. eigenvalues --    1.33948   1.34313   1.34445   1.34714   1.35016
 Alpha virt. eigenvalues --    1.35113   1.35450   1.35522   1.35790   1.36278
 Alpha virt. eigenvalues --    1.36688   1.37110   1.37492   1.38073   1.38272
 Alpha virt. eigenvalues --    1.38555   1.38909   1.39524   1.39738   1.40041
 Alpha virt. eigenvalues --    1.40229   1.40867   1.40986   1.41774   1.42141
 Alpha virt. eigenvalues --    1.42283   1.42403   1.42876   1.43170   1.43397
 Alpha virt. eigenvalues --    1.43798   1.44322   1.44532   1.44691   1.44784
 Alpha virt. eigenvalues --    1.45401   1.45752   1.46172   1.46240   1.46759
 Alpha virt. eigenvalues --    1.47109   1.47314   1.47724   1.47917   1.48287
 Alpha virt. eigenvalues --    1.48559   1.48837   1.49146   1.49358   1.49820
 Alpha virt. eigenvalues --    1.50006   1.50222   1.50660   1.51049   1.51300
 Alpha virt. eigenvalues --    1.51523   1.51626   1.52020   1.52344   1.52696
 Alpha virt. eigenvalues --    1.53070   1.53555   1.53875   1.54104   1.54335
 Alpha virt. eigenvalues --    1.54551   1.55168   1.56082   1.56476   1.57287
 Alpha virt. eigenvalues --    1.57696   1.57847   1.58275   1.58703   1.59142
 Alpha virt. eigenvalues --    1.59255   1.59825   1.60098   1.60290   1.60559
 Alpha virt. eigenvalues --    1.60903   1.61020   1.61732   1.61965   1.62282
 Alpha virt. eigenvalues --    1.62590   1.62634   1.63063   1.63203   1.63466
 Alpha virt. eigenvalues --    1.63624   1.64013   1.64157   1.64490   1.64723
 Alpha virt. eigenvalues --    1.64935   1.65210   1.65296   1.65596   1.65789
 Alpha virt. eigenvalues --    1.65931   1.66183   1.66426   1.66512   1.66710
 Alpha virt. eigenvalues --    1.67046   1.67385   1.67507   1.67800   1.68039
 Alpha virt. eigenvalues --    1.68078   1.68299   1.68386   1.68962   1.69287
 Alpha virt. eigenvalues --    1.69423   1.69662   1.69935   1.70402   1.70801
 Alpha virt. eigenvalues --    1.71131   1.71478   1.71643   1.72221   1.72829
 Alpha virt. eigenvalues --    1.72932   1.73364   1.73600   1.74041   1.74595
 Alpha virt. eigenvalues --    1.74633   1.74981   1.75211   1.75687   1.75924
 Alpha virt. eigenvalues --    1.76624   1.77335   1.77523   1.78004   1.78232
 Alpha virt. eigenvalues --    1.78567   1.79011   1.79402   1.79927   1.80299
 Alpha virt. eigenvalues --    1.80993   1.81345   1.81671   1.82003   1.82246
 Alpha virt. eigenvalues --    1.82790   1.83251   1.83698   1.84405   1.84674
 Alpha virt. eigenvalues --    1.85432   1.85626   1.85961   1.86413   1.87435
 Alpha virt. eigenvalues --    1.87590   1.88735   1.89363   1.90332   1.91183
 Alpha virt. eigenvalues --    1.92060   1.92217   1.93240   1.93541   1.94133
 Alpha virt. eigenvalues --    1.94268   1.94468   1.95332   1.95739   1.96346
 Alpha virt. eigenvalues --    1.96592   1.97317   1.97608   1.97949   1.98033
 Alpha virt. eigenvalues --    1.98314   1.98728   1.98912   1.99116   1.99520
 Alpha virt. eigenvalues --    1.99950   2.00184   2.00556   2.00942   2.01373
 Alpha virt. eigenvalues --    2.01515   2.01794   2.02380   2.02908   2.03020
 Alpha virt. eigenvalues --    2.03129   2.03293   2.03621   2.03766   2.03993
 Alpha virt. eigenvalues --    2.04166   2.04758   2.04997   2.05035   2.05357
 Alpha virt. eigenvalues --    2.05415   2.05630   2.05664   2.06138   2.06334
 Alpha virt. eigenvalues --    2.06591   2.07132   2.07424   2.07846   2.07988
 Alpha virt. eigenvalues --    2.08266   2.08312   2.08616   2.08660   2.08884
 Alpha virt. eigenvalues --    2.08913   2.09078   2.09346   2.09764   2.09874
 Alpha virt. eigenvalues --    2.09987   2.10321   2.10678   2.10875   2.11356
 Alpha virt. eigenvalues --    2.11588   2.12034   2.12504   2.12664   2.12910
 Alpha virt. eigenvalues --    2.12938   2.13059   2.13673   2.14112   2.14150
 Alpha virt. eigenvalues --    2.14914   2.15040   2.15081   2.15300   2.15482
 Alpha virt. eigenvalues --    2.15883   2.16719   2.16891   2.17035   2.17313
 Alpha virt. eigenvalues --    2.17522   2.17712   2.17830   2.18138   2.18332
 Alpha virt. eigenvalues --    2.18450   2.18675   2.19090   2.19367   2.19455
 Alpha virt. eigenvalues --    2.19797   2.20219   2.20537   2.20905   2.21084
 Alpha virt. eigenvalues --    2.21224   2.21572   2.22028   2.22502   2.22890
 Alpha virt. eigenvalues --    2.23205   2.23336   2.23819   2.23980   2.24511
 Alpha virt. eigenvalues --    2.24631   2.24878   2.25026   2.25185   2.25342
 Alpha virt. eigenvalues --    2.25722   2.26026   2.26573   2.26625   2.26866
 Alpha virt. eigenvalues --    2.27173   2.27341   2.27658   2.27745   2.27965
 Alpha virt. eigenvalues --    2.28172   2.28448   2.29057   2.29443   2.29840
 Alpha virt. eigenvalues --    2.30118   2.30226   2.30454   2.30714   2.30968
 Alpha virt. eigenvalues --    2.31018   2.31201   2.31818   2.31972   2.32237
 Alpha virt. eigenvalues --    2.32635   2.32765   2.32950   2.33243   2.33684
 Alpha virt. eigenvalues --    2.33747   2.34076   2.34481   2.34586   2.34789
 Alpha virt. eigenvalues --    2.34978   2.35231   2.35452   2.35606   2.35935
 Alpha virt. eigenvalues --    2.36154   2.36170   2.36537   2.36585   2.36970
 Alpha virt. eigenvalues --    2.37061   2.37296   2.37438   2.37871   2.38473
 Alpha virt. eigenvalues --    2.38701   2.38772   2.38878   2.39231   2.39459
 Alpha virt. eigenvalues --    2.39636   2.39730   2.40130   2.40248   2.40468
 Alpha virt. eigenvalues --    2.41174   2.41386   2.41640   2.41855   2.41904
 Alpha virt. eigenvalues --    2.42372   2.42389   2.42577   2.43239   2.43512
 Alpha virt. eigenvalues --    2.44010   2.44179   2.44400   2.44690   2.45039
 Alpha virt. eigenvalues --    2.45571   2.46151   2.46422   2.46855   2.47290
 Alpha virt. eigenvalues --    2.47466   2.48192   2.48493   2.49021   2.49319
 Alpha virt. eigenvalues --    2.49489   2.49793   2.50128   2.51036   2.51176
 Alpha virt. eigenvalues --    2.51276   2.51733   2.53134   2.54417   2.54621
 Alpha virt. eigenvalues --    2.54696   2.55360   2.55620   2.56006   2.56120
 Alpha virt. eigenvalues --    2.56372   2.56961   2.57376   2.57675   2.58450
 Alpha virt. eigenvalues --    2.59146   2.59467   2.60001   2.60875   2.61442
 Alpha virt. eigenvalues --    2.62266   2.62516   2.63292   2.64031   2.64420
 Alpha virt. eigenvalues --    2.64642   2.65922   2.66353   2.66787   2.67190
 Alpha virt. eigenvalues --    2.67325   2.67943   2.68232   2.68380   2.69189
 Alpha virt. eigenvalues --    2.69555   2.70272   2.70843   2.71342   2.72319
 Alpha virt. eigenvalues --    2.72459   2.72901   2.73154   2.73360   2.73533
 Alpha virt. eigenvalues --    2.74138   2.74941   2.75160   2.75718   2.76476
 Alpha virt. eigenvalues --    2.76860   2.77316   2.77344   2.77434   2.78205
 Alpha virt. eigenvalues --    2.78680   2.78833   2.79232   2.79746   2.79898
 Alpha virt. eigenvalues --    2.80721   2.80767   2.81156   2.82376   2.82700
 Alpha virt. eigenvalues --    2.82704   2.83145   2.83432   2.83721   2.83958
 Alpha virt. eigenvalues --    2.84008   2.84294   2.84632   2.84813   2.85110
 Alpha virt. eigenvalues --    2.85600   2.85711   2.86248   2.86717   2.87224
 Alpha virt. eigenvalues --    2.87747   2.88112   2.88683   2.89100   2.89429
 Alpha virt. eigenvalues --    2.89570   2.89687   2.89989   2.90419   2.90841
 Alpha virt. eigenvalues --    2.91099   2.91957   2.92534   2.92826   2.92969
 Alpha virt. eigenvalues --    2.93130   2.95123   2.95448   2.96096   2.96394
 Alpha virt. eigenvalues --    2.96491   2.96848   2.97520   2.97634   2.97809
 Alpha virt. eigenvalues --    2.98201   2.98452   2.98686   2.99060   2.99159
 Alpha virt. eigenvalues --    2.99463   2.99743   3.00570   3.01241   3.01584
 Alpha virt. eigenvalues --    3.01733   3.02259   3.02619   3.02973   3.03467
 Alpha virt. eigenvalues --    3.03890   3.04022   3.04328   3.04585   3.04720
 Alpha virt. eigenvalues --    3.05109   3.05489   3.06371   3.06682   3.07113
 Alpha virt. eigenvalues --    3.07323   3.07562   3.08190   3.08787   3.09214
 Alpha virt. eigenvalues --    3.09503   3.09573   3.09749   3.10306   3.10696
 Alpha virt. eigenvalues --    3.10816   3.11009   3.11274   3.11549   3.11758
 Alpha virt. eigenvalues --    3.12460   3.12888   3.13069   3.13483   3.13609
 Alpha virt. eigenvalues --    3.14356   3.14606   3.14648   3.15083   3.15234
 Alpha virt. eigenvalues --    3.15595   3.15834   3.16628   3.16836   3.17120
 Alpha virt. eigenvalues --    3.17452   3.17755   3.18199   3.18668   3.19005
 Alpha virt. eigenvalues --    3.19656   3.20218   3.20805   3.21519   3.21562
 Alpha virt. eigenvalues --    3.22413   3.25274   3.25516   3.26054   3.27010
 Alpha virt. eigenvalues --    3.27710   3.28427   3.29248   3.30288   3.30413
 Alpha virt. eigenvalues --    3.30927   3.30975   3.31973   3.32152   3.32512
 Alpha virt. eigenvalues --    3.33177   3.34269   3.34645   3.34968   3.35986
 Alpha virt. eigenvalues --    3.37046   3.37458   3.38338   3.39223   3.41002
 Alpha virt. eigenvalues --    3.41934   3.42084   3.42530   3.43413   3.43911
 Alpha virt. eigenvalues --    3.45226   3.45521   3.46985   3.47444   3.47747
 Alpha virt. eigenvalues --    3.48461   3.48936   3.49498   3.50165   3.51108
 Alpha virt. eigenvalues --    3.51334   3.52171   3.52722   3.53226   3.54348
 Alpha virt. eigenvalues --    3.54877   3.57263   3.57768   3.58964   3.63921
 Alpha virt. eigenvalues --    3.64818   3.66377   3.67805   3.69899   3.70151
 Alpha virt. eigenvalues --    3.70610   3.76872   3.77515   3.78909   3.82435
 Alpha virt. eigenvalues --    3.84715   3.84910   3.85183   4.01344   4.02711
 Alpha virt. eigenvalues --    4.04128   4.05810   4.07246   4.07916   4.07944
 Alpha virt. eigenvalues --    4.19295   4.19552   4.20173   4.20981   4.23730
 Alpha virt. eigenvalues --    4.25782   4.25909   4.42988   4.43825   4.44859
 Alpha virt. eigenvalues --    4.46158   4.48512   4.48642   4.49179   7.32297
 Alpha virt. eigenvalues --    7.54789
          Condensed to atoms (all electrons):
 Mulliken charges:
               1
     1  Cd   0.929467
     2  C    0.562470
     3  C    0.234830
     4  C   -0.059918
     5  H    0.080661
     6  C    0.009102
     7  H    0.084315
     8  C    0.149130
     9  C    0.168956
    10  H    0.132894
    11  N   -0.471837
    12  N    0.358830
    13  O   -0.488539
    14  O   -0.583262
    15  O   -0.377133
    16  O   -0.370580
    17  C    0.551650
    18  C    0.226409
    19  C   -0.044763
    20  H    0.064577
    21  C    0.004419
    22  H    0.063231
    23  C    0.139629
    24  C    0.207689
    25  H    0.132997
    26  N   -0.506195
    27  N    0.365962
    28  O   -0.561590
    29  O   -0.529927
    30  O   -0.384450
    31  O   -0.409458
    32  Cd   0.918909
    33  O   -0.600134
    34  O   -0.615294
    35  C    0.546580
    36  C    0.131967
    37  C   -0.017257
    38  H    0.069734
    39  C   -0.004111
    40  H    0.076957
    41  C    0.156450
    42  C    0.109231
    43  H    0.086885
    44  N   -0.353033
    45  N    0.364098
    46  O   -0.491239
    47  O   -0.405991
    48  O   -0.391573
    49  C    0.497573
    50  C    0.210448
    51  C   -0.049694
    52  H    0.072382
    53  C   -0.019113
    54  H    0.075002
    55  C    0.146619
    56  C    0.168944
    57  H    0.134600
    58  N   -0.468683
    59  N    0.361272
    60  O   -0.499789
    61  O   -0.567804
    62  O   -0.392832
    63  O   -0.368642
    64  C    0.545673
    65  C    0.248575
    66  C   -0.042048
    67  H    0.062021
    68  C    0.018467
    69  H    0.065411
    70  C    0.131469
    71  C    0.207193
    72  H    0.125113
    73  N   -0.508918
    74  N    0.367234
    75  O   -0.555648
    76  O   -0.558763
    77  O   -0.385458
    78  O   -0.395968
    79  O   -0.642142
    80  C    0.566583
    81  C    0.168669
    82  C   -0.052492
    83  H    0.045134
    84  C   -0.005464
    85  H    0.064093
    86  C    0.144993
    87  C    0.128856
    88  H    0.094137
    89  N   -0.321883
    90  N    0.365999
    91  O   -0.475884
    92  O   -0.404683
    93  O   -0.395982
    94  C    0.503612
    95  C    0.159800
    96  C   -0.053559
    97  H    0.072926
    98  C   -0.003938
    99  H    0.075970
   100  C    0.157266
   101  C    0.093972
   102  H    0.089951
   103  N   -0.349220
   104  N    0.357857
   105  O   -0.490642
   106  O   -0.382074
   107  O   -0.398234
 Sum of Mulliken charges =  -3.00000
 Mulliken charges with hydrogens summed into heavy atoms:
               1
     1  Cd   0.929467
     2  C    0.562470
     3  C    0.234830
     4  C    0.020743
     6  C    0.093417
     8  C    0.149130
     9  C    0.301849
    11  N   -0.471837
    12  N    0.358830
    13  O   -0.488539
    14  O   -0.583262
    15  O   -0.377133
    16  O   -0.370580
    17  C    0.551650
    18  C    0.226409
    19  C    0.019815
    21  C    0.067649
    23  C    0.139629
    24  C    0.340686
    26  N   -0.506195
    27  N    0.365962
    28  O   -0.561590
    29  O   -0.529927
    30  O   -0.384450
    31  O   -0.409458
    32  Cd   0.918909
    33  O   -0.600134
    34  O   -0.615294
    35  C    0.546580
    36  C    0.131967
    37  C    0.052477
    39  C    0.072846
    41  C    0.156450
    42  C    0.196116
    44  N   -0.353033
    45  N    0.364098
    46  O   -0.491239
    47  O   -0.405991
    48  O   -0.391573
    49  C    0.497573
    50  C    0.210448
    51  C    0.022688
    53  C    0.055889
    55  C    0.146619
    56  C    0.303544
    58  N   -0.468683
    59  N    0.361272
    60  O   -0.499789
    61  O   -0.567804
    62  O   -0.392832
    63  O   -0.368642
    64  C    0.545673
    65  C    0.248575
    66  C    0.019973
    68  C    0.083879
    70  C    0.131469
    71  C    0.332306
    73  N   -0.508918
    74  N    0.367234
    75  O   -0.555648
    76  O   -0.558763
    77  O   -0.385458
    78  O   -0.395968
    79  O   -0.642142
    80  C    0.566583
    81  C    0.168669
    82  C   -0.007358
    84  C    0.058629
    86  C    0.144993
    87  C    0.222993
    89  N   -0.321883
    90  N    0.365999
    91  O   -0.475884
    92  O   -0.404683
    93  O   -0.395982
    94  C    0.503612
    95  C    0.159800
    96  C    0.019367
    98  C    0.072032
   100  C    0.157266
   101  C    0.183923
   103  N   -0.349220
   104  N    0.357857
   105  O   -0.490642
   106  O   -0.382074
   107  O   -0.398234
 Electronic spatial extent (au):  <R**2>=          73229.3576
 Charge=             -3.0000 electrons
 Dipole moment (field-independent basis, Debye):
    X=             -3.2044    Y=            -11.8851    Z=             -9.8936  Tot=             15.7926
 Quadrupole moment (field-independent basis, Debye-Ang):
   XX=           -920.8688   YY=           -662.4000   ZZ=           -628.9949
   XY=            -32.7361   XZ=            -33.5918   YZ=             12.7192
 Traceless Quadrupole moment (field-independent basis, Debye-Ang):
   XX=           -183.4476   YY=             75.0212   ZZ=            108.4263
   XY=            -32.7361   XZ=            -33.5918   YZ=             12.7192
 Octapole moment (field-independent basis, Debye-Ang**2):
  XXX=            -52.4118  YYY=            236.7383  ZZZ=           -271.1910  XYY=            360.2254
  XXY=            135.0702  XXZ=           -411.8565  XZZ=            250.9991  YZZ=           -256.3317
  YYZ=            195.7833  XYZ=           -137.6911
 Hexadecapole moment (field-independent basis, Debye-Ang**3):
 XXXX=         -75844.3523 YYYY=         -36059.0326 ZZZZ=         -16001.0440 XXXY=          -2508.5276
 XXXZ=            958.2317 YYYX=            690.8876 YYYZ=            712.7151 ZZZX=            243.1504
 ZZZY=            253.8436 XXYY=         -15972.1895 XXZZ=         -14281.8340 YYZZ=          -8363.9531
 XXYZ=           -313.1671 YYXZ=          -1222.0429 ZZXY=           -389.7737
 N-N= 1.715642935962D+04 E-N=-4.522009361012D+04  KE= 4.544570222467D+03
 Leave Link  601 at Fri Jun  9 14:41:44 2023, MaxMem=  8589934592 cpu:              86.8 elap:               1.8
 1\1\GINC-HCN113\SP\RCAM-B3LYP TD-FC\Gen\C42H21Cd2N14O28(3-)\\09-Jun-2023\0\\#p CAM-B3lYP gen pseudo=read TD(Nstates=200) em
 piricaldispersion=gd3\\Step 2\\-3,1\Cd,0,8.17682,1.66028,-0.12768\C,0,
 6.67092,4.29498,-0.16883\C,0,6.38797,3.8022,-1.57342\C,0,5.5109,4.4734
 9,-2.42344\H,0,5.0977,5.26655,-2.16686\C,0,5.28017,3.91038,-3.66857\H,
 0,4.69343,4.30806,-4.27062\C,0,5.94218,2.74738,-3.99451\C,0,6.80677,2.
 13343,-3.10697\H,0,7.24195,1.34837,-3.34992\N,0,7.01817,2.66462,-1.905
 22\N,0,5.72557,2.14479,-5.31702\O,0,7.09832,3.50955,0.67533\O,0,6.4597
 8,5.53371,0.0211\O,0,5.25567,2.85503,-6.194\O,0,6.06048,0.98071,-5.489
 37\C,0,10.74619,2.51965,1.32486\C,0,10.21261,1.41724,2.22529\C,0,10.93
 187,0.93689,3.30042\H,0,11.76388,1.29997,3.50167\C,0,10.42323,-0.07357
 ,4.07071\H,0,10.90832,-0.42813,4.78009\C,0,9.16004,-0.54904,3.75767\C,
 0,8.4594,-0.03462,2.66965\H,0,7.61908,-0.37399,2.46105\N,0,8.98047,0.9
 3797,1.92749\N,0,8.56361,-1.63361,4.51976\O,0,10.02647,2.91994,0.38222
 \O,0,11.88842,2.95781,1.61797\O,0,7.35335,-1.83051,4.36383\O,0,9.27718
 ,-2.27082,5.26543\Cd,0,8.17682,7.06958,-0.12768\O,0,6.45978,0.12441,0.
 0211\O,0,9.10918,0.25316,-1.61797\C,0,10.25141,-0.185,-1.32486\C,0,10.
 78499,-1.28741,-2.22529\C,0,10.06573,-1.76776,-3.30042\H,0,9.23372,-1.
 40468,-3.50167\C,0,10.57437,-2.77822,-4.07071\H,0,10.08928,-3.13278,-4
 .78009\C,0,11.83756,-3.25369,-3.75767\C,0,12.5382,-2.73927,-2.66965\H,
 0,13.37852,-3.07864,-2.46105\N,0,12.01713,-1.76668,-1.92749\N,0,12.433
 99,-4.33826,-4.51976\O,0,10.97113,0.21529,-0.38222\O,0,13.64425,-4.535
 16,-4.36383\O,0,11.72042,-4.97547,-5.26543\C,0,6.67092,9.70428,-0.1688
 3\C,0,6.38797,9.2115,-1.57342\C,0,5.5109,9.88279,-2.42344\H,0,5.0977,1
 0.67585,-2.16686\C,0,5.28017,9.31968,-3.66857\H,0,4.69343,9.71736,-4.2
 7062\C,0,5.94218,8.15668,-3.99451\C,0,6.80677,7.54273,-3.10697\H,0,7.2
 4195,6.75767,-3.34992\N,0,7.01817,8.07392,-1.90522\N,0,5.72557,7.55409
 ,-5.31702\O,0,7.09832,8.91885,0.67533\O,0,6.45978,10.94301,0.0211\O,0,
 5.25567,8.26433,-6.194\O,0,6.06048,6.39001,-5.48937\C,0,10.74619,7.928
 95,1.32486\C,0,10.21261,6.82654,2.22529\C,0,10.93187,6.34619,3.30042\H
 ,0,11.76388,6.70927,3.50167\C,0,10.42323,5.33573,4.07071\H,0,10.90832,
 4.98117,4.78009\C,0,9.16004,4.86026,3.75767\C,0,8.4594,5.37468,2.66965
 \H,0,7.61908,5.03531,2.46105\N,0,8.98047,6.34727,1.92749\N,0,8.56361,3
 .77569,4.51976\O,0,10.02647,8.32924,0.38222\O,0,11.88842,8.36711,1.617
 97\O,0,7.35335,3.57879,4.36383\O,0,9.27718,3.13848,5.26543\O,0,9.10918
 ,5.66245,-1.61797\C,0,10.25141,5.2243,-1.32486\C,0,10.78499,4.12189,-2
 .22529\C,0,10.06573,3.64154,-3.30042\H,0,9.23372,4.00462,-3.50167\C,0,
 10.57437,2.63108,-4.07071\H,0,10.08928,2.27652,-4.78009\C,0,11.83756,2
 .15561,-3.75767\C,0,12.5382,2.67003,-2.66965\H,0,13.37852,2.33066,-2.4
 6105\N,0,12.01713,3.64262,-1.92749\N,0,12.43399,1.07104,-4.51976\O,0,1
 0.97113,5.62459,-0.38222\O,0,13.64425,0.87414,-4.36383\O,0,11.72042,0.
 43383,-5.26543\C,0,6.67092,-1.11432,-0.16883\C,0,6.38797,-1.6071,-1.57
 342\C,0,5.5109,-0.93581,-2.42344\H,0,5.0977,-0.14275,-2.16686\C,0,5.28
 017,-1.49892,-3.66857\H,0,4.69343,-1.10124,-4.27062\C,0,5.94218,-2.661
 92,-3.99451\C,0,6.80677,-3.27587,-3.10697\H,0,7.24195,-4.06093,-3.3499
 2\N,0,7.01817,-2.74468,-1.90522\N,0,5.72557,-3.26451,-5.31702\O,0,7.09
 832,-1.89975,0.67533\O,0,5.25567,-2.55427,-6.194\O,0,6.06048,-4.42859,
 -5.48937\\Version=EM64L-G16RevA.03\State=1-A\HF=-4579.3709188\RMSD=8.9
 67e-09\PG=C01 [X(C42H21Cd2N14O28)]\\@


 REALITY IS FOR PEOPLE WHO CAN'T FACE SCIENCE FICTION.
 Job cpu time:      
 Elapsed time:       
 File lengths (MBytes):  RWF= 180169 Int=      0 D2E=      0 Chk=  19019 Scr=      1
 Normal termination of Gaussian 16 at Fri Jun  9 14:42:09 2023.
